# vtk DataFile Version 2.0
sampleSurface
ASCII
DATASET POLYDATA
POINTS 96 float
0.176776 -0.176776 0
0.176776 0.176776 0
-0.176776 0.176776 0
-0.176776 -0.176776 0
0.241481 -0.064705 0
0.241481 0.064705 0
0.064705 0.241481 0
-0.064705 0.241481 0
-0.241481 0.064705 0
-0.241481 -0.064705 0
0.064705 -0.241481 0
-0.064705 -0.241481 0
0.216506 -0.125 0
0.216506 0.125 0
0.125 0.216506 0
-0.125 0.216506 0
-0.216506 0.125 0
-0.216506 -0.125 0
0.125 -0.216506 0
-0.125 -0.216506 0
0.247861 -0.0326315 0
0.247861 0.0326315 0
0.0326315 0.247861 0
-0.0326315 0.247861 0
-0.247861 0.0326315 0
-0.247861 -0.0326315 0
0.0326315 -0.247861 0
-0.0326315 -0.247861 0
0.25 8.32665e-17 0
-8.32665e-17 0.25 0
-0.25 -8.32665e-17 0
8.32665e-17 -0.25 0
0.198338 -0.152191 0
0.198338 0.152191 0
0.152191 0.198338 0
-0.152191 0.198338 0
-0.198338 0.152191 0
-0.198338 -0.152191 0
0.152191 -0.198338 0
-0.152191 -0.198338 0
0.23097 -0.095671 0
0.23097 0.095671 0
0.095671 0.23097 0
-0.095671 0.23097 0
-0.23097 0.095671 0
-0.23097 -0.095671 0
0.095671 -0.23097 0
-0.095671 -0.23097 0
0.176776 -0.176776 0.1
0.176776 0.176776 0.1
-0.176776 0.176776 0.1
-0.176776 -0.176776 0.1
0.241481 -0.064705 0.1
0.241481 0.064705 0.1
0.064705 0.241481 0.1
-0.064705 0.241481 0.1
-0.241481 0.064705 0.1
-0.241481 -0.064705 0.1
0.064705 -0.241481 0.1
-0.064705 -0.241481 0.1
0.216506 -0.125 0.1
0.216506 0.125 0.1
0.125 0.216506 0.1
-0.125 0.216506 0.1
-0.216506 0.125 0.1
-0.216506 -0.125 0.1
0.125 -0.216506 0.1
-0.125 -0.216506 0.1
0.247861 -0.0326315 0.1
0.247861 0.0326315 0.1
0.0326315 0.247861 0.1
-0.0326315 0.247861 0.1
-0.247861 0.0326315 0.1
-0.247861 -0.0326315 0.1
0.0326315 -0.247861 0.1
-0.0326315 -0.247861 0.1
0.25 -8.32665e-17 0.1
8.32665e-17 0.25 0.1
-0.25 8.32665e-17 0.1
-8.32665e-17 -0.25 0.1
0.198338 -0.152191 0.1
0.198338 0.152191 0.1
0.152191 0.198338 0.1
-0.152191 0.198338 0.1
-0.198338 0.152191 0.1
-0.198338 -0.152191 0.1
0.152191 -0.198338 0.1
-0.152191 -0.198338 0.1
0.23097 -0.095671 0.1
0.23097 0.095671 0.1
0.095671 0.23097 0.1
-0.095671 0.23097 0.1
-0.23097 0.095671 0.1
-0.23097 -0.095671 0.1
0.095671 -0.23097 0.1
-0.095671 -0.23097 0.1

POLYGONS 96 384
3 0 32 80
3 80 48 0
3 32 12 60
3 60 80 32
3 12 40 88
3 88 60 12
3 40 4 52
3 52 88 40
3 4 20 68
3 68 52 4
3 76 68 20
3 20 28 76
3 28 21 69
3 69 76 28
3 21 5 53
3 53 69 21
3 5 41 89
3 89 53 5
3 41 13 61
3 61 89 41
3 13 33 81
3 81 61 13
3 33 1 49
3 49 81 33
3 1 34 82
3 82 49 1
3 34 14 62
3 62 82 34
3 14 42 90
3 90 62 14
3 42 6 54
3 54 90 42
3 6 22 70
3 70 54 6
3 77 70 22
3 22 29 77
3 29 23 71
3 71 77 29
3 23 7 55
3 55 71 23
3 7 43 91
3 91 55 7
3 43 15 63
3 63 91 43
3 15 35 83
3 83 63 15
3 35 2 50
3 50 83 35
3 2 36 84
3 84 50 2
3 36 16 64
3 64 84 36
3 16 44 92
3 92 64 16
3 44 8 56
3 56 92 44
3 8 24 72
3 72 56 8
3 78 72 24
3 24 30 78
3 30 25 73
3 73 78 30
3 25 9 57
3 57 73 25
3 9 45 93
3 93 57 9
3 45 17 65
3 65 93 45
3 17 37 85
3 85 65 17
3 37 3 51
3 51 85 37
3 0 48 86
3 86 38 0
3 38 86 66
3 66 18 38
3 18 66 94
3 94 46 18
3 46 94 58
3 58 10 46
3 10 58 74
3 74 26 10
3 31 26 74
3 74 79 31
3 79 75 27
3 27 31 79
3 27 75 59
3 59 11 27
3 11 59 95
3 95 47 11
3 47 95 67
3 67 19 47
3 19 67 87
3 87 39 19
3 39 87 51
3 51 3 39
POINT_DATA 96
FIELD attributes 1
cellIbMaskExt 1 96 float
1 1 1 1 1 1 1 1 1 1
1 1 1 1 1 1 1 1 1 1
1 1 1 1 1 1 1 1 1 1
1 1 1 1 1 1 1 1 1 1
1 1 1 1 1 1 1 1 1 1
1 1 1 1 1 1 1 1 1 1
1 1 1 1 1 1 1 1 1 1
1 1 1 1 1 1 1 1 1 1
1 1 1 1 1 1 1 1 1 1
1 1 1 1 1 1
