/*--------------------------------*- C++ -*----------------------------------*\
| =========                 |                                                 |
| \\      /  F ield         | OpenFOAM Extend Project: Open source CFD        |
|  \\    /   O peration     | Version:  1.6-ext                               |
|   \\  /    A nd           | Web:      www.extend-project.de                 |
|    \\/     M anipulation  |                                                 |
\*---------------------------------------------------------------------------*/
FoamFile
{
    version     2.0;
    format      ascii;
    class       surfaceScalarField;
    location    "0";
    object      phi;
}
// * * * * * * * * * * * * * * * * * * * * * * * * * * * * * * * * * * * * * //

dimensions      [0 3 -1 0 0 0 0];

internalField   nonuniform List<scalar> 
3650
(
0.00402199
-2.19875e-05
0.00404512
-2.31345e-05
0.0040706
-2.54805e-05
0.00409973
-2.91318e-05
0.00413398
-3.42495e-05
0.00417504
-4.10538e-05
0.00422486
-4.98259e-05
0.00428577
-6.09097e-05
0.00436048
-7.47107e-05
0.00445217
-9.16897e-05
0.00456452
-0.000112348
0.00470172
-0.000137197
0.00486843
-0.000166715
0.00506969
-0.000201257
0.00531062
-0.000240926
0.00559594
-0.000285328
0.00592905
-0.000333109
0.00631005
-0.000380993
0.00673167
-0.000421629
0.00716698
-0.000435305
0.00758261
-0.000415633
0.00787743
-0.000294814
0.00819529
-0.000317867
0.00827399
-7.86992e-05
0.00829884
-2.48449e-05
0.00827402
2.48157e-05
0.00819536
7.8665e-05
0.00787754
0.000317819
0.00758279
0.000294751
0.00716724
0.000415543
0.00673206
0.000435183
0.00631059
0.00042147
0.0059298
0.000380793
0.00559694
0.00033286
0.00531192
0.000285019
0.00507138
0.000240541
0.0048706
0.000200775
0.00470449
0.00016611
0.00456806
0.000136438
0.00445666
0.000111391
0.00436618
9.0484e-05
0.00429299
7.31898e-05
0.004234
5.89904e-05
0.0041866
4.74036e-05
0.0041486
3.79968e-05
0.00411821
3.03922e-05
0.00409394
2.42661e-05
0.0040746
1.93456e-05
0.00405919
1.54032e-05
0.00404694
1.22509e-05
0.00403721
9.73474e-06
0.00402948
7.72923e-06
0.00402335
6.13272e-06
0.00401848
4.86311e-06
0.00401463
3.85437e-06
0.00401157
3.0535e-06
0.00400916
2.41806e-06
0.00400724
1.91415e-06
0.00400573
1.5147e-06
0.00400453
1.19817e-06
0.00400358
9.47427e-07
0.00400283
7.48824e-07
0.00400224
5.91508e-07
0.00400177
4.66875e-07
0.00400141
3.68073e-07
0.00400112
2.89648e-07
0.00400089
2.2732e-07
0.00400071
1.77642e-07
0.00400057
1.37811e-07
0.00400047
1.05682e-07
0.00400039
7.9434e-08
0.00400033
5.75716e-08
0.00400029
3.89625e-08
0.00400027
2.25355e-08
7.36146e-09
0.00402069
-4.26746e-05
0.00404246
-4.49114e-05
0.00406647
-4.94887e-05
0.00409396
-5.66178e-05
0.00412633
-6.66209e-05
0.00416522
-7.99401e-05
0.00421253
-9.71434e-05
0.00427056
-0.000118932
0.00434199
-0.000146142
0.00443004
-0.000179738
0.00453848
-0.00022079
0.00467171
-0.00027043
0.00483475
-0.000329759
0.0050332
-0.000399701
0.00527302
-0.000480748
0.0055602
-0.000572504
0.00589991
-0.000672822
0.00629482
-0.000775899
0.00674128
-0.000868091
0.00720627
-0.000900301
0.00765023
-0.000859583
0.00794818
-0.000592771
0.00827069
-0.000640379
0.00834584
-0.00015384
0.00836656
-4.55726e-05
0.00834586
4.55201e-05
0.00827075
0.000153778
0.00794828
0.000640288
0.00765037
0.000592652
0.00720651
0.00085941
0.00674163
0.000900064
0.00629532
0.000867781
0.0059006
0.00077551
0.00556112
0.000672338
0.00527424
0.000571903
0.00503478
0.00048
0.00483679
0.000398767
0.00467431
0.000328587
0.00454179
0.000268957
0.00443424
0.000218937
0.00434733
0.000177401
0.00427732
0.000143194
0.0042211
0.000115212
0.00417606
9.24485e-05
0.00414004
7.40143e-05
0.00411129
5.91429e-05
0.00408837
4.71833e-05
0.00407012
3.75908e-05
0.00405561
2.99138e-05
0.00404408
2.37811e-05
0.00403493
1.88898e-05
0.00402766
1.49936e-05
0.0040219
1.18937e-05
0.00401734
9.42948e-06
0.00401372
7.47229e-06
0.00401085
5.91886e-06
0.00400859
4.6866e-06
0.00400679
3.70958e-06
0.00400537
2.93523e-06
0.00400425
2.32171e-06
0.00400336
1.83575e-06
0.00400266
1.45088e-06
0.0040021
1.14603e-06
0.00400166
9.04527e-07
0.00400132
7.13091e-07
0.00400105
5.6115e-07
0.00400083
4.40383e-07
0.00400067
3.4413e-07
0.00400054
2.66965e-07
0.00400044
2.04713e-07
0.00400036
1.5388e-07
0.00400031
1.11561e-07
0.00400027
7.55133e-08
0.00400025
4.36849e-08
1.42793e-08
0.00401815
-6.08221e-05
0.00403727
-6.40343e-05
0.00405839
-7.06123e-05
0.00408265
-8.08693e-05
0.00411131
-9.5286e-05
0.0041459
-0.000114526
0.0041882
-0.000139451
0.00424041
-0.00017114
0.00430517
-0.0002109
0.00438571
-0.000260277
0.00448596
-0.000321044
0.00461069
-0.000395156
0.00476559
-0.000484661
0.0049574
-0.000591513
0.0051939
-0.000717247
0.0054838
-0.000862401
0.0058364
-0.00102542
0.00626065
-0.00120015
0.00676245
-0.00136989
0.00729294
-0.0014308
0.00779042
-0.00135707
0.00810589
-0.000908238
0.00840597
-0.000940461
0.00849127
-0.000239139
0.0085079
-6.22037e-05
0.00849128
6.21396e-05
0.008406
0.000239061
0.00810595
0.000940339
0.00779052
0.000908078
0.00729311
0.00135682
0.00676272
0.00143046
0.00626106
0.00136944
0.00583698
0.00119959
0.00548459
0.00102473
0.00519495
0.000861542
0.00495877
0.000716181
0.00476736
0.000590182
0.00461295
0.000482994
0.00448884
0.000393062
0.00438937
0.000318408
0.00430982
0.000256955
0.0042463
0.000206709
0.00419567
0.00016585
0.00415534
0.000132775
0.00412326
0.000106097
0.00409775
8.4647e-05
0.00407749
6.74433e-05
0.00406141
5.36751e-05
0.00404865
4.26762e-05
0.00403852
3.39029e-05
0.0040305
2.69139e-05
0.00402414
2.13524e-05
0.0040191
1.6931e-05
0.00401511
1.34188e-05
0.00401196
1.06307e-05
0.00400946
8.41883e-06
0.00400748
6.66489e-06
0.00400591
5.27465e-06
0.00400468
4.17309e-06
0.0040037
3.30052e-06
0.00400292
2.60947e-06
0.00400231
2.06224e-06
0.00400183
1.62886e-06
0.00400145
1.28554e-06
0.00400115
1.01343e-06
0.00400091
7.97483e-07
0.00400073
6.25829e-07
0.00400058
4.8903e-07
0.00400047
3.79383e-07
0.00400038
2.90888e-07
0.00400032
2.18641e-07
0.00400027
1.58531e-07
0.00400024
1.07301e-07
0.00400022
6.2077e-08
2.03022e-08
0.00401449
-7.53149e-05
0.00402979
-7.93313e-05
0.00404674
-8.75636e-05
0.00406629
-0.000100419
0.00408953
-0.000118528
0.00411777
-0.000142767
0.00415261
-0.00017429
0.00419603
-0.000214562
0.00425054
-0.000265405
0.00431929
-0.000329033
0.00440634
-0.000408086
0.00451682
-0.000505641
0.00465734
-0.000625183
0.00483632
-0.000770489
0.00506446
-0.000945391
0.00535533
-0.00115327
0.00572609
-0.00139617
0.00620021
-0.00167428
0.00680243
-0.00197211
0.00744664
-0.002075
0.00801575
-0.00192618
0.00837128
-0.00126376
0.00858311
-0.00115229
0.00870757
-0.000363604
0.00873334
-8.79658e-05
0.00870757
8.79075e-05
0.0085831
0.000363529
0.00837128
0.00115216
0.00801578
0.00126358
0.00744671
0.00192589
0.00680259
0.00207458
0.00620049
0.00197154
0.00572652
0.00167357
0.00535594
0.00139531
0.00506528
0.0011522
0.00483739
0.00094407
0.00465873
0.000768843
0.0045186
0.000623123
0.0044086
0.000503055
0.00432218
0.000404831
0.0042542
0.000324931
0.00420068
0.000260231
0.0041585
0.000208032
0.00412523
0.000166045
0.00409897
0.000132357
0.00407823
0.000105385
0.00406185
8.38271e-05
0.0040489
6.66233e-05
0.00403867
5.29117e-05
0.00403057
4.19954e-05
0.00402417
3.33128e-05
0.00401911
2.64125e-05
0.00401511
2.09325e-05
0.00401195
1.65832e-05
0.00400945
1.31331e-05
0.00400747
1.03975e-05
0.0040059
8.22937e-06
0.00400467
6.51152e-06
0.00400369
5.15084e-06
0.00400292
4.07329e-06
0.0040023
3.22011e-06
0.00400182
2.5446e-06
0.00400144
2.0097e-06
0.00400114
1.58601e-06
0.0040009
1.25022e-06
0.00400072
9.838e-07
0.00400057
7.7201e-07
0.00400046
6.03234e-07
0.00400037
4.68004e-07
0.0040003
3.58824e-07
0.00400025
2.69684e-07
0.00400021
1.95553e-07
0.00400019
1.32346e-07
0.00400017
7.65577e-08
2.50437e-08
0.00400991
-8.52252e-05
0.0040204
-8.98208e-05
0.00403209
-9.92497e-05
0.00404567
-0.000113999
0.00406196
-0.000134826
0.00408199
-0.000162795
0.00410703
-0.000199327
0.00413873
-0.000246259
0.00417925
-0.000305925
0.00423147
-0.000381257
0.00429928
-0.000475898
0.00438798
-0.00059434
0.00450488
-0.000742083
0.00466021
-0.000925818
0.00486855
-0.00115373
0.00515153
-0.00143625
0.00554377
-0.00178841
0.0061061
-0.0022366
0.00688444
-0.00275045
0.00770493
-0.0028955
0.00834542
-0.00256667
0.00874377
-0.00166211
0.00881637
-0.0012249
0.00898126
-0.000528495
0.00903595
-0.000142652
0.00898124
0.000142621
0.00881632
0.000528445
0.0087437
0.00122477
0.00834535
0.00166194
0.00770489
0.00256635
0.00688446
0.00289501
0.00610622
0.00274978
0.00554401
0.00223578
0.0051519
0.00178741
0.00486907
0.00143503
0.00466091
0.00115223
0.00450579
0.000923956
0.00438916
0.000739756
0.00430079
0.000591422
0.0042334
0.000472227
0.0041817
0.000376632
0.00414184
0.000300092
0.00411097
0.000238895
0.00408699
0.000190028
0.0040683
0.000151051
0.00405369
0.000119993
0.00404225
9.52663e-05
0.00403328
7.55968e-05
0.00402623
5.99611e-05
0.00402068
4.75399e-05
0.00401632
3.76779e-05
0.00401288
2.98517e-05
0.00401017
2.3644e-05
0.00400803
1.8722e-05
0.00400634
1.48209e-05
0.00400501
1.17298e-05
0.00400396
9.28128e-06
0.00400312
7.34218e-06
0.00400247
5.80683e-06
0.00400195
4.59136e-06
0.00400154
3.6292e-06
0.00400122
2.86757e-06
0.00400096
2.2646e-06
0.00400076
1.78704e-06
0.0040006
1.4086e-06
0.00400048
1.10839e-06
0.00400038
8.69745e-07
0.00400031
6.79561e-07
0.00400025
5.27228e-07
0.0040002
4.04227e-07
0.00400017
3.0379e-07
0.00400014
2.20298e-07
0.00400013
1.49095e-07
0.00400012
8.62425e-08
2.82137e-08
0.00400465
-8.98761e-05
0.00400961
-9.47789e-05
0.00401521
-0.000104848
0.00402184
-0.000120626
0.00402997
-0.000142961
0.00404023
-0.000173056
0.00405344
-0.000212533
0.0040707
-0.000263527
0.00409359
-0.000328806
0.00412427
-0.000411944
0.00416592
-0.00051755
0.00422318
-0.000651597
0.00430302
-0.000821921
0.00441618
-0.00103897
0.00457948
-0.00131704
0.00481946
-0.00167623
0.00517647
-0.00214541
0.00570505
-0.00276519
0.00634244
-0.00338783
0.00674924
-0.0033023
0.0067063
-0.00252373
0.00649198
-0.00144779
0.0060369
-0.000769821
0
-0
0
-0
0
0
0.00603687
0
0.00649188
0.000769767
0.00670614
0.00144768
0.00674906
0.00252343
0.00634229
0.00330178
0.00570499
0.00338707
0.0051765
0.00276427
0.00481958
0.00214433
0.00457968
0.00167493
0.00441646
0.00131545
0.00430341
0.00103701
0.00422369
0.000819472
0.00416659
0.000648529
0.00412512
0.000513692
0.00409467
0.000407085
0.00407208
0.000322677
0.00405519
0.000255789
0.00404246
0.000202761
0.0040328
0.000160711
0.00402542
0.000127364
0.00401977
0.00010092
0.00401541
7.99529e-05
0.00401205
6.33304e-05
0.00400943
5.01548e-05
0.00400739
3.97133e-05
0.00400581
3.144e-05
0.00400456
2.48861e-05
0.00400359
1.96951e-05
0.00400283
1.55843e-05
0.00400223
1.23296e-05
0.00400176
9.75293e-06
0.00400139
7.71339e-06
0.00400109
6.09918e-06
0.00400086
4.82172e-06
0.00400068
3.81077e-06
0.00400054
3.0107e-06
0.00400043
2.37741e-06
0.00400034
1.87592e-06
0.00400027
1.47855e-06
0.00400021
1.16339e-06
0.00400017
9.12888e-07
0.00400013
7.13231e-07
0.00400011
5.53335e-07
0.00400009
4.24233e-07
0.00400007
3.18801e-07
0.00400006
2.31185e-07
0.00400006
1.56473e-07
0.00400005
9.05152e-08
2.96138e-08
0.00399902
-8.88971e-05
0.00399804
-9.38014e-05
0.00399708
-0.000103883
0.00399616
-0.000119705
0.00399535
-0.000142152
0.00399478
-0.000172487
0.00399467
-0.000212428
0.00399541
-0.00026426
0.00399759
-0.00033099
0.0040022
-0.000416557
0.00401079
-0.000526133
0.00402572
-0.000666532
0.00405061
-0.000846808
0.0040908
-0.00107917
0.00415414
-0.00138038
0.00425152
-0.0017736
0.00439587
-0.00228977
0.00459828
-0.0029676
0.00469358
-0.00348313
0.00436824
-0.00297696
0.00352647
-0.00168196
0
-0
0
-0
0
0
0
0
0
0
0
0
0
0
0.00352635
0
0.004368
0.00168178
0.0046933
0.00297647
0.00459805
0.00348232
0.0043957
0.00296662
0.00425137
0.00228866
0.004154
0.0017723
0.00409066
0.0013788
0.00405045
0.00107722
0.00402553
0.000844387
0.00401056
0.000663505
0.00400192
0.00052233
0.00399724
0.000411768
0.00399496
0.00032495
0.00399412
0.000256635
0.00399408
0.000202796
0.00399448
0.000160316
0.00399507
0.000126769
0.00399573
0.000100261
0.00399638
7.93061e-05
0.00399697
6.27353e-05
0.0039975
4.96287e-05
0.00399795
3.92604e-05
0.00399833
3.10576e-05
0.00399865
2.45676e-05
0.00399891
1.94327e-05
0.00399913
1.537e-05
0.0039993
1.21556e-05
0.00399944
9.61238e-06
0.00399956
7.60034e-06
0.00399965
6.00856e-06
0.00399972
4.74928e-06
0.00399978
3.75302e-06
0.00399982
2.96473e-06
0.00399986
2.34087e-06
0.00399989
1.84696e-06
0.00399991
1.45562e-06
0.00399993
1.14529e-06
0.00399994
8.98673e-07
0.00399996
7.02097e-07
0.00399996
5.44674e-07
0.00399997
4.17593e-07
0.00399998
3.13795e-07
0.00399998
2.27545e-07
0.00399998
1.54012e-07
0.00399998
8.90942e-08
2.9151e-08
0.00399337
-8.22685e-05
0.00398642
-8.68535e-05
0.00397883
-9.62865e-05
0.00397023
-0.000111109
0.00396025
-0.000132176
0.00394848
-0.000160711
0.00393444
-0.000198386
0.00391761
-0.000247432
0.00389742
-0.000310804
0.00387326
-0.000392398
0.00384452
-0.00049739
0.00381068
-0.000632692
0.00377142
-0.00080754
0.00372625
-0.001034
0.00367286
-0.00132699
0.00360318
-0.00170392
0.00349845
-0.00218504
0.00332609
-0.00279524
0.00286699
-0.00302404
0.00189143
-0.00200139
0
-0
0
0
0
0
0
0
0
0
0
0
0
0
0
0
0
0
0.00189127
0
0.00286667
0.00200107
0.00332574
0.00302326
0.0034981
0.00279426
0.00360279
0.00218397
0.00367241
0.00170268
0.00372569
0.00132551
0.00377072
0.00103219
0.00380981
0.0008053
0.00384342
0.000629896
0.00387186
0.000493882
0.00389565
0.000387982
0.00391537
0.000305234
0.0039316
0.0002404
0.0039449
0.000189501
0.00395573
0.000149481
0.00396452
0.000117978
0.00397163
9.3156e-05
0.00397735
7.35826e-05
0.00398195
5.81382e-05
0.00398563
4.59454e-05
0.00398858
3.63156e-05
0.00399093
2.87075e-05
0.0039928
2.2695e-05
0.00399429
1.79426e-05
0.00399547
1.41855e-05
0.00399641
1.12149e-05
0.00399716
8.86599e-06
0.00399775
7.00853e-06
0.00399822
5.53963e-06
0.00399859
4.37794e-06
0.00399889
3.45912e-06
0.00399912
2.73226e-06
0.0039993
2.15711e-06
0.00399945
1.70186e-06
0.00399956
1.34119e-06
0.00399965
1.05519e-06
0.00399972
8.27958e-07
0.00399978
6.46825e-07
0.00399982
5.01765e-07
0.00399985
3.84699e-07
0.00399988
2.8908e-07
0.0039999
2.09623e-07
0.00399991
1.41879e-07
0.00399992
8.20757e-08
2.68559e-08
0.00398807
-7.03425e-05
0.00397552
-7.42966e-05
0.00396167
-8.24367e-05
0.0039458
-9.524e-05
0.00392708
-0.000113461
0.00390455
-0.00013818
0.00387704
-0.000170871
0.0038431
-0.000213491
0.00380088
-0.000268593
0.00374794
-0.000339455
0.00368075
-0.000430204
0.00359401
-0.000545951
0.00347951
-0.000693032
0.00332523
-0.000879727
0.00311621
-0.00111798
0.00283776
-0.00142547
0.0024774
-0.00182468
0.00201778
-0.00233562
0.00128974
-0.00229599
0
-0
0
0
0
0
0
0
0
0
0
0
0
0
0
0
0
0
0
0
0
0
0.00128956
0
0.00201745
0.00229538
0.00247697
0.00233474
0.00283721
0.00182373
0.0031155
0.00142439
0.00332431
0.0011167
0.00347833
0.000878174
0.00359251
0.000691116
0.00367884
0.000543564
0.00374551
0.000427211
0.00379781
0.000335689
0.0038392
0.000263845
0.0038721
0.000207495
0.00389831
0.000163296
0.00391918
0.000128604
0.00393581
0.00010135
0.00394905
7.99201e-05
0.00395958
6.30541e-05
0.00396795
4.97693e-05
0.00397459
3.92976e-05
0.00397987
3.10383e-05
0.00398406
2.45206e-05
0.00398738
1.93749e-05
0.00399001
1.5311e-05
0.00399209
1.21005e-05
0.00399375
9.56365e-06
0.00399505
7.55868e-06
0.00399609
5.97387e-06
0.00399691
4.72101e-06
0.00399755
3.73046e-06
0.00399807
2.94719e-06
0.00399847
2.32767e-06
0.00399879
1.83753e-06
0.00399904
1.44963e-06
0.00399924
1.14239e-06
0.0039994
8.98729e-07
0.00399952
7.05178e-07
0.00399962
5.50887e-07
0.00399969
4.27316e-07
0.00399975
3.2761e-07
0.00399979
2.46181e-07
0.00399982
1.78518e-07
0.00399984
1.20825e-07
0.00399985
6.98994e-08
2.28731e-08
0.00398349
-5.38362e-05
0.00396608
-5.68827e-05
0.0039468
-6.3157e-05
0.00392459
-7.30328e-05
0.00389823
-8.71013e-05
0.00386626
-0.000106209
0.00382691
-0.000131516
0.00377798
-0.000164567
0.0037168
-0.000207405
0.00364005
-0.00026271
0.00354384
-0.000333994
0.0034237
-0.00042581
0.0032745
-0.000543831
0.00308911
-0.000694343
0.00285381
-0.000882666
0.00253972
-0.00111138
0.00209744
-0.0013824
0.00146835
-0.00170653
0.000535823
-0.00136346
0
-0
0
0
0
0
0
0
0
0
0
0
0
0
0
0
0
0
0
0
0
0
0.000535706
0
0.00146797
0.00136311
0.0020969
0.00170581
0.002539
0.00138164
0.00285286
0.00111053
0.00308788
0.000881671
0.00327291
0.000693145
0.00342167
0.000542361
0.00354125
0.000423983
0.00363675
0.000331707
0.0037126
0.000259835
0.00377267
0.00020378
0.00382018
0.00015999
0.00385774
0.000125731
0.00388745
9.8895e-05
0.00391095
7.78493e-05
0.00392954
6.13263e-05
0.00394426
4.8341e-05
0.0039559
3.81262e-05
0.00396511
3.00839e-05
0.0039724
2.37473e-05
0.00397817
1.87513e-05
0.00398274
1.48102e-05
0.00398635
1.16996e-05
0.00398921
9.24368e-06
0.00399147
7.30395e-06
0.00399325
5.77154e-06
0.00399467
4.56067e-06
0.00399578
3.60371e-06
0.00399667
2.84726e-06
0.00399737
2.24921e-06
0.00399792
1.77629e-06
0.00399835
1.40215e-06
0.0039987
1.1061e-06
0.00399897
8.71642e-07
0.00399918
6.8569e-07
0.00399935
5.3801e-07
0.00399948
4.20293e-07
0.00399958
3.26011e-07
0.00399966
2.49935e-07
0.00399971
1.87805e-07
0.00399976
1.36188e-07
0.00399979
9.21765e-08
0.0039998
5.33338e-08
1.74557e-08
0.00397996
-3.37939e-05
0.00395879
-3.57149e-05
0.00393531
-3.96722e-05
0.00390818
-4.59034e-05
0.00387586
-5.47842e-05
0.0038365
-6.68514e-05
0.00378782
-8.28358e-05
0.00372696
-0.000103702
0.00365025
-0.000130698
0.00355294
-0.000165397
0.00342868
-0.000209736
0.0032689
-0.000266029
0.00306209
-0.000337022
0.00279386
-0.000426118
0.00244909
-0.000537894
0.00201592
-0.000678211
0.00148576
-0.000852248
0.000839753
-0.00106052
0
-0
0
0
0
0
0
0
0
0
0
0
0
0
0
0
0
0
0
0
0
0
0
0
0
0
0.000839533
0
0.00148528
0.00106006
0.00201516
0.000851762
0.00244802
0.000677673
0.00279242
0.000537268
0.0030602
0.000425366
0.00326647
0.0003361
0.00342556
0.000264884
0.00354897
0.000208302
0.00364521
0.000163595
0.00372056
0.000128426
0.00377972
0.000100834
0.00382624
7.92103e-05
0.00386287
6.22668e-05
0.00389173
4.8984e-05
0.0039145
3.85631e-05
0.00393246
3.03798e-05
0.00394664
2.39477e-05
0.00395783
1.88875e-05
0.00396668
1.49032e-05
0.00397366
1.17639e-05
0.00397919
9.28867e-06
0.00398355
7.33601e-06
0.003987
5.79486e-06
0.00398972
4.57806e-06
0.00399188
3.61704e-06
0.00399358
2.85785e-06
0.00399493
2.25798e-06
0.00399599
1.78386e-06
0.00399683
1.40907e-06
0.00399749
1.11274e-06
0.00399802
8.78333e-07
0.00399843
6.92845e-07
0.00399876
5.45979e-07
0.00399901
4.29484e-07
0.00399921
3.36979e-07
0.00399937
2.63242e-07
0.00399949
2.04188e-07
0.00399959
1.56537e-07
0.00399966
1.17622e-07
0.00399971
8.53042e-08
0.00399974
5.77413e-08
0.00399976
3.34148e-08
1.0943e-08
0.00397773
-1.15191e-05
0.00395419
-1.21753e-05
0.00392804
-1.35274e-05
0.00389779
-1.56567e-05
0.0038617
-1.86918e-05
0.00381767
-2.2816e-05
0.00376311
-2.82775e-05
0.00369481
-3.54012e-05
0.00360871
-4.46013e-05
0.0034997
-5.63911e-05
0.00336136
-7.13909e-05
0.00318566
-9.03337e-05
0.00296272
-0.000114082
0.00268029
-0.000143683
0.00232298
-0.000180591
0.00187196
-0.000227189
0.00130636
-0.000286641
0.000605186
-0.000359351
0
-0
0
0
0
0
0
0
0
0
0
0
0
0
0
0
0
0
0
0
0
0
0
0
0
0
0.000604998
0
0.00130586
0.000359191
0.00187115
0.000286475
0.00232182
0.000227006
0.00267871
0.000180377
0.00296065
0.000143427
0.00318298
0.000113767
0.00335792
8.99434e-05
0.00349532
7.09026e-05
0.00360314
5.57773e-05
0.00368774
4.38275e-05
0.00375415
3.44242e-05
0.00380631
2.70427e-05
0.00384733
2.12544e-05
0.0038796
1.67161e-05
0.003905
1.31561e-05
0.00392502
1.03614e-05
0.0039408
8.16549e-06
0.00395325
6.43859e-06
0.00396308
5.07936e-06
0.00397083
4.00871e-06
0.00397695
3.16478e-06
0.00398179
2.49916e-06
0.00398561
1.97393e-06
0.00398863
1.55931e-06
0.00399102
1.23189e-06
0.0039929
9.73263e-07
0.00399439
7.68938e-07
0.00399557
6.07468e-07
0.0039965
4.79806e-07
0.00399723
3.78878e-07
0.00399781
2.99055e-07
0.00399827
2.35887e-07
0.00399863
1.85906e-07
0.00399891
1.46244e-07
0.00399913
1.14755e-07
0.0039993
8.96279e-08
0.00399944
6.95078e-08
0.00399954
5.32871e-08
0.00399962
4.00411e-08
0.00399968
2.90583e-08
0.00399971
1.96726e-08
0.00399974
1.13798e-08
3.73754e-09
0.00397696
1.1519e-05
0.00395261
1.21753e-05
0.00392556
1.35274e-05
0.00389424
1.56567e-05
0.00385686
1.86918e-05
0.00381123
2.2816e-05
0.00375467
2.82775e-05
0.00368387
3.54012e-05
0.00359467
4.46013e-05
0.00348189
5.63911e-05
0.0033391
7.13909e-05
0.00315844
9.03336e-05
0.00293027
0.000114082
0.00264291
0.000143683
0.00228173
0.000180591
0.00182735
0.000227189
0.00125406
0.000286641
0.000535361
0.000359351
0
0
0
0
0
0
0
0
0
0
0
0
0
0
0
0
0
0
0
0
0
0
0
0
0
0
0.000535183
-0
0.00125357
-0.000359191
0.00182652
-0.000286475
0.00228053
-0.000227005
0.00264128
-0.000180377
0.00292813
-0.000143427
0.00315567
-0.000113767
0.00333556
-8.99434e-05
0.00347736
-7.09026e-05
0.00358892
-5.57772e-05
0.00367657
-4.38274e-05
0.00374542
-3.44242e-05
0.0037995
-2.70427e-05
0.00384201
-2.12544e-05
0.00387545
-1.6716e-05
0.00390176
-1.3156e-05
0.00392248
-1.03613e-05
0.00393881
-8.16546e-06
0.00395169
-6.4386e-06
0.00396185
-5.07938e-06
0.00396986
-4.00871e-06
0.00397619
-3.16477e-06
0.00398119
-2.49915e-06
0.00398514
-1.97393e-06
0.00398826
-1.55932e-06
0.00399072
-1.23191e-06
0.00399267
-9.73282e-07
0.00399421
-7.68948e-07
0.00399542
-6.07442e-07
0.00399638
-4.79811e-07
0.00399714
-3.78916e-07
0.00399774
-2.99084e-07
0.00399821
-2.35929e-07
0.00399858
-1.85891e-07
0.00399887
-1.46242e-07
0.0039991
-1.14727e-07
0.00399928
-8.96361e-08
0.00399942
-6.95294e-08
0.00399953
-5.32899e-08
0.00399961
-4.00509e-08
0.00399967
-2.90307e-08
0.00399971
-1.96403e-08
0.00399973
-1.13715e-08
-3.7085e-09
0.00397773
3.37939e-05
0.00395419
3.57148e-05
0.00392804
3.96722e-05
0.00389779
4.59034e-05
0.0038617
5.47842e-05
0.00381767
6.68515e-05
0.00376311
8.28358e-05
0.00369481
0.000103702
0.00360871
0.000130698
0.0034997
0.000165397
0.00336136
0.000209736
0.00318566
0.000266029
0.00296272
0.000337022
0.00268029
0.000426118
0.00232298
0.000537894
0.00187196
0.000678211
0.00130636
0.000852248
0.000605186
0.00106052
0
0
0
0
0
0
0
0
0
0
0
0
0
0
0
0
0
0
0
0
0
0
0
0
0
0
0.000604998
0
0.00130586
-0.00106006
0.00187115
-0.000851763
0.00232182
-0.000677673
0.00267871
-0.000537268
0.00296065
-0.000425366
0.00318298
-0.0003361
0.00335792
-0.000264884
0.00349532
-0.000208302
0.00360314
-0.000163595
0.00368774
-0.000128426
0.00375415
-0.000100834
0.00380631
-7.92103e-05
0.00384733
-6.22668e-05
0.0038796
-4.8984e-05
0.003905
-3.8563e-05
0.00392502
-3.03798e-05
0.0039408
-2.39477e-05
0.00395325
-1.88875e-05
0.00396308
-1.49033e-05
0.00397083
-1.17639e-05
0.00397695
-9.28865e-06
0.00398179
-7.33598e-06
0.00398561
-5.79486e-06
0.00398863
-4.57809e-06
0.00399102
-3.61707e-06
0.0039929
-2.85786e-06
0.00399439
-2.25798e-06
0.00399557
-1.78386e-06
0.0039965
-1.40908e-06
0.00399723
-1.11277e-06
0.00399781
-8.78356e-07
0.00399827
-6.92863e-07
0.00399863
-5.45963e-07
0.00399891
-4.29508e-07
0.00399913
-3.3697e-07
0.0039993
-2.63244e-07
0.00399944
-2.04198e-07
0.00399954
-1.56538e-07
0.00399962
-1.17638e-07
0.00399968
-8.52962e-08
0.00399971
-5.7698e-08
0.00399974
-3.33718e-08
-1.092e-08
0.00397996
5.38361e-05
0.00395879
5.68826e-05
0.00393531
6.3157e-05
0.00390818
7.30328e-05
0.00387586
8.71013e-05
0.0038365
0.000106209
0.00378782
0.000131516
0.00372696
0.000164567
0.00365025
0.000207405
0.00355294
0.00026271
0.00342868
0.000333994
0.0032689
0.00042581
0.00306209
0.000543831
0.00279386
0.000694343
0.00244909
0.000882666
0.00201592
0.00111138
0.00148576
0.0013824
0.000839753
0.00170653
0
0.00136346
0
0
0
0
0
0
0
0
0
0
0
0
0
0
0
0
0
0
0
0
0
0
0
0
0.000839533
-0.00136311
0.00148528
-0.00170581
0.00201516
-0.00138164
0.00244802
-0.00111053
0.00279242
-0.000881671
0.0030602
-0.000693145
0.00326647
-0.000542361
0.00342556
-0.000423983
0.00354897
-0.000331707
0.00364521
-0.000259835
0.00372056
-0.00020378
0.00377972
-0.00015999
0.00382624
-0.000125731
0.00386287
-9.8895e-05
0.00389173
-7.78492e-05
0.0039145
-6.13263e-05
0.00393246
-4.83409e-05
0.00394664
-3.81261e-05
0.00395783
-3.00839e-05
0.00396668
-2.37473e-05
0.00397366
-1.87513e-05
0.00397919
-1.48101e-05
0.00398355
-1.16996e-05
0.003987
-9.24367e-06
0.00398972
-7.30397e-06
0.00399188
-5.77155e-06
0.00399358
-4.56067e-06
0.00399493
-3.60372e-06
0.00399599
-2.84728e-06
0.00399683
-2.24921e-06
0.00399749
-1.7763e-06
0.00399802
-1.40218e-06
0.00399843
-1.10611e-06
0.00399876
-8.71637e-07
0.00399901
-6.8572e-07
0.00399921
-5.37989e-07
0.00399937
-4.20283e-07
0.00399949
-3.26025e-07
0.00399959
-2.49942e-07
0.00399966
-1.87804e-07
0.00399971
-1.36185e-07
0.00399974
-9.2171e-08
0.00399976
-5.33179e-08
-1.74672e-08
0.00398349
7.03424e-05
0.00396608
7.42966e-05
0.0039468
8.24367e-05
0.00392459
9.524e-05
0.00389823
0.000113461
0.00386626
0.000138181
0.00382691
0.000170871
0.00377798
0.000213491
0.0037168
0.000268593
0.00364005
0.000339455
0.00354384
0.000430204
0.0034237
0.000545951
0.0032745
0.000693032
0.00308911
0.000879727
0.00285381
0.00111798
0.00253972
0.00142547
0.00209744
0.00182468
0.00146835
0.00233562
0.000535823
0.00229599
0
0
0
0
0
0
0
0
0
0
0
0
0
0
0
0
0
0
0
0
0
0
0.000535706
-0
0.00146797
-0.00229538
0.0020969
-0.00233474
0.002539
-0.00182373
0.00285286
-0.00142439
0.00308788
-0.0011167
0.00327291
-0.000878174
0.00342167
-0.000691116
0.00354125
-0.000543564
0.00363675
-0.000427211
0.0037126
-0.000335689
0.00377267
-0.000263845
0.00382018
-0.000207495
0.00385774
-0.000163296
0.00388745
-0.000128604
0.00391095
-0.00010135
0.00392954
-7.99201e-05
0.00394426
-6.30541e-05
0.0039559
-4.97693e-05
0.00396511
-3.92976e-05
0.0039724
-3.10383e-05
0.00397817
-2.45206e-05
0.00398274
-1.93749e-05
0.00398635
-1.5311e-05
0.00398921
-1.21005e-05
0.00399147
-9.56364e-06
0.00399325
-7.55869e-06
0.00399467
-5.9739e-06
0.00399578
-4.72104e-06
0.00399667
-3.73048e-06
0.00399737
-2.94716e-06
0.00399792
-2.32768e-06
0.00399835
-1.83758e-06
0.0039987
-1.44965e-06
0.00399897
-1.14238e-06
0.00399918
-8.98742e-07
0.00399935
-7.05159e-07
0.00399948
-5.50893e-07
0.00399958
-4.2732e-07
0.00399966
-3.27603e-07
0.00399971
-2.4618e-07
0.00399976
-1.7853e-07
0.00399979
-1.20866e-07
0.0039998
-6.99025e-08
-2.28861e-08
0.00398807
8.22685e-05
0.00397552
8.68535e-05
0.00396167
9.62865e-05
0.0039458
0.000111109
0.00392708
0.000132176
0.00390455
0.000160711
0.00387704
0.000198386
0.0038431
0.000247432
0.00380089
0.000310804
0.00374794
0.000392398
0.00368075
0.00049739
0.00359401
0.000632692
0.00347951
0.00080754
0.00332523
0.001034
0.00311621
0.00132699
0.00283776
0.00170392
0.0024774
0.00218504
0.00201778
0.00279524
0.00128974
0.00302404
0
0.00200139
0
0
0
0
0
0
0
0
0
0
0
0
0
0
0
0
0
0
0
-0
0.00128956
-0.00200107
0.00201745
-0.00302326
0.00247697
-0.00279427
0.00283721
-0.00218397
0.0031155
-0.00170268
0.00332431
-0.00132551
0.00347833
-0.00103219
0.00359251
-0.0008053
0.00367884
-0.000629896
0.00374551
-0.000493882
0.00379781
-0.000387982
0.0038392
-0.000305234
0.0038721
-0.0002404
0.00389831
-0.000189501
0.00391918
-0.000149481
0.00393581
-0.000117978
0.00394905
-9.3156e-05
0.00395958
-7.35826e-05
0.00396795
-5.81381e-05
0.00397459
-4.59454e-05
0.00397987
-3.63156e-05
0.00398406
-2.87075e-05
0.00398738
-2.2695e-05
0.00399001
-1.79426e-05
0.00399209
-1.41855e-05
0.00399375
-1.12149e-05
0.00399505
-8.866e-06
0.00399609
-7.00857e-06
0.00399691
-5.53965e-06
0.00399755
-4.37797e-06
0.00399807
-3.45912e-06
0.00399847
-2.73226e-06
0.00399879
-2.15712e-06
0.00399904
-1.70185e-06
0.00399924
-1.34122e-06
0.0039994
-1.05523e-06
0.00399952
-8.27951e-07
0.00399962
-6.46833e-07
0.00399969
-5.01758e-07
0.00399975
-3.84682e-07
0.00399979
-2.89087e-07
0.00399982
-2.09609e-07
0.00399984
-1.41909e-07
0.00399985
-8.20787e-08
-2.68333e-08
0.00399337
8.88971e-05
0.00398642
9.38014e-05
0.00397883
0.000103883
0.00397023
0.000119705
0.00396025
0.000142152
0.00394848
0.000172487
0.00393444
0.000212428
0.00391761
0.00026426
0.00389742
0.00033099
0.00387326
0.000416557
0.00384452
0.000526133
0.00381068
0.000666532
0.00377142
0.000846808
0.00372625
0.00107917
0.00367286
0.00138038
0.00360318
0.0017736
0.00349845
0.00228977
0.00332609
0.0029676
0.00286699
0.00348313
0.00189143
0.00297696
0
0.00168196
0
0
0
0
0
0
0
0
0
0
0
0
0
-0
0
-0
0.00189127
-0.00168178
0.00286667
-0.00297647
0.00332574
-0.00348232
0.0034981
-0.00296662
0.00360279
-0.00228866
0.00367241
-0.0017723
0.00372569
-0.0013788
0.00377072
-0.00107722
0.00380981
-0.000844387
0.00384342
-0.000663505
0.00387186
-0.00052233
0.00389565
-0.000411768
0.00391537
-0.00032495
0.0039316
-0.000256635
0.0039449
-0.000202796
0.00395573
-0.000160316
0.00396452
-0.000126769
0.00397163
-0.000100261
0.00397735
-7.93061e-05
0.00398195
-6.27353e-05
0.00398563
-4.96286e-05
0.00398858
-3.92604e-05
0.00399093
-3.10576e-05
0.0039928
-2.45676e-05
0.00399429
-1.94328e-05
0.00399547
-1.537e-05
0.00399641
-1.21555e-05
0.00399716
-9.61237e-06
0.00399775
-7.60036e-06
0.00399822
-6.00859e-06
0.00399859
-4.74932e-06
0.00399889
-3.75301e-06
0.00399912
-2.96472e-06
0.0039993
-2.34087e-06
0.00399945
-1.84696e-06
0.00399956
-1.45565e-06
0.00399965
-1.14532e-06
0.00399972
-8.98672e-07
0.00399978
-7.02107e-07
0.00399982
-5.44655e-07
0.00399985
-4.17551e-07
0.00399988
-3.13815e-07
0.0039999
-2.27536e-07
0.00399991
-1.54049e-07
0.00399992
-8.91401e-08
-2.91018e-08
0.00399902
8.98761e-05
0.00399804
9.47789e-05
0.00399708
0.000104848
0.00399616
0.000120626
0.00399535
0.000142961
0.00399478
0.000173056
0.00399467
0.000212533
0.00399541
0.000263527
0.00399759
0.000328806
0.0040022
0.000411944
0.00401079
0.00051755
0.00402572
0.000651597
0.00405061
0.000821921
0.0040908
0.00103897
0.00415414
0.00131704
0.00425152
0.00167623
0.00439587
0.00214541
0.00459828
0.00276519
0.00469358
0.00338783
0.00436824
0.0033023
0.00352647
0.00252373
0
0.00144779
0
0.000769821
0
0
0
0
0
0
0
-0
0
-0.000769767
0.00352635
-0.00144768
0.004368
-0.00252343
0.0046933
-0.00330178
0.00459805
-0.00338707
0.0043957
-0.00276427
0.00425137
-0.00214433
0.004154
-0.00167493
0.00409066
-0.00131545
0.00405045
-0.00103701
0.00402553
-0.000819472
0.00401056
-0.000648529
0.00400192
-0.000513692
0.00399724
-0.000407085
0.00399496
-0.000322677
0.00399412