/*--------------------------------*- C++ -*----------------------------------*\
| =========                 |                                                 |
| \\      /  F ield         | OpenFOAM Extend Project: Open source CFD        |
|  \\    /   O peration     | Version:  1.6-ext                               |
|   \\  /    A nd           | Web:      www.extend-project.de                 |
|    \\/     M anipulation  |                                                 |
\*---------------------------------------------------------------------------*/
FoamFile
{
    version     2.0;
    format      ascii;
    class       volVectorField;
    location    "0";
    object      U;
}
// * * * * * * * * * * * * * * * * * * * * * * * * * * * * * * * * * * * * * //

dimensions      [0 1 -1 0 0 0 0];

internalField   nonuniform List<vector> 
1875
(
(1.00275 -0.00274844 0)
(1.00839 -0.00289181 0)
(1.01447 -0.00318507 0)
(1.02129 -0.00364147 0)
(1.02921 -0.00428119 0)
(1.03863 -0.00513173 0)
(1.04999 -0.00622823 0)
(1.06383 -0.00761371 0)
(1.08078 -0.00933883 0)
(1.10158 -0.0114612 0)
(1.12709 -0.0140435 0)
(1.15828 -0.0171497 0)
(1.19627 -0.0208393 0)
(1.24227 -0.0251571 0)
(1.29754 -0.0301157 0)
(1.36332 -0.035666 0)
(1.44062 -0.0416386 0)
(1.52989 -0.0476241 0)
(1.63021 -0.0527036 0)
(1.73733 -0.0544131 0)
(1.8437 -0.0519541 0)
(1.9325 -0.0368518 0)
(2.00909 -0.0397333 0)
(2.05866 -0.00983741 0)
(2.0716 -0.00310562 0)
(2.07161 0.00310196 0)
(2.05867 0.00983313 0)
(2.00911 0.0397273 0)
(1.93254 0.0368439 0)
(1.84375 0.0519428 0)
(1.73741 0.0543979 0)
(1.63033 0.0526838 0)
(1.53005 0.0475991 0)
(1.44084 0.0416075 0)
(1.36361 0.0356273 0)
(1.29791 0.0300676 0)
(1.24275 0.0250969 0)
(1.19689 0.0207638 0)
(1.15907 0.0170547 0)
(1.12809 0.0139239 0)
(1.10286 0.0113105 0)
(1.0824 0.00914872 0)
(1.06587 0.0073738 0)
(1.05257 0.00592545 0)
(1.0419 0.0047496 0)
(1.03335 0.00379902 0)
(1.02652 0.00303326 0)
(1.02107 0.0024182 0)
(1.01672 0.0019254 0)
(1.01327 0.00153136 0)
(1.01052 0.00121684 0)
(1.00834 0.000966154 0)
(1.0066 0.00076659 0)
(1.00523 0.000607889 0)
(1.00414 0.000481796 0)
(1.00328 0.000381687 0)
(1.00259 0.000302258 0)
(1.00205 0.000239269 0)
(1.00162 0.000189337 0)
(1.00128 0.000149771 0)
(1.00101 0.000118428 0)
(1.0008 9.3603e-05 0)
(1.00063 7.39385e-05 0)
(1.0005 5.83593e-05 0)
(1.0004 4.60091e-05 0)
(1.00032 3.6206e-05 0)
(1.00025 2.8415e-05 0)
(1.0002 2.22053e-05 0)
(1.00016 1.72263e-05 0)
(1.00013 1.32102e-05 0)
(1.00011 9.92926e-06 0)
(1.00009 7.19645e-06 0)
(1.00008 4.87031e-06 0)
(1.00007 2.81694e-06 0)
(1.00007 9.20183e-07 0)
(1.00259 -0.00808277 0)
(1.00789 -0.00850573 0)
(1.01362 -0.00937116 0)
(1.02005 -0.0107187 0)
(1.02754 -0.0126088 0)
(1.03644 -0.0151242 0)
(1.04722 -0.0183712 0)
(1.06039 -0.0224802 0)
(1.07657 -0.0276066 0)
(1.0965 -0.0339284 0)
(1.12106 -0.0416422 0)
(1.15127 -0.0509534 0)
(1.18831 -0.0620592 0)
(1.23349 -0.0751198 0)
(1.28828 -0.0902092 0)
(1.35415 -0.107229 0)
(1.43251 -0.125741 0)
(1.52434 -0.144612 0)
(1.62951 -0.161215 0)
(1.74344 -0.166951 0)
(1.85706 -0.159402 0)
(1.9498 -0.110948 0)
(2.02736 -0.119781 0)
(2.07707 -0.0290674 0)
(2.08905 -0.00880219 0)
(2.08905 0.00879197 0)
(2.07708 0.0290554 0)
(2.02738 0.119763 0)
(1.94983 0.110925 0)
(1.85711 0.159369 0)
(1.74352 0.166906 0)
(1.62962 0.161156 0)
(1.52449 0.144538 0)
(1.43272 0.12565 0)
(1.35442 0.107115 0)
(1.28863 0.0900676 0)
(1.23395 0.0749427 0)
(1.18889 0.0618372 0)
(1.15201 0.0506744 0)
(1.122 0.041291 0)
(1.0977 0.0334856 0)
(1.07808 0.027048 0)
(1.0623 0.0217753 0)
(1.04964 0.0174815 0)
(1.03951 0.0140014 0)
(1.03142 0.0111919 0)
(1.02496 0.00893117 0)
(1.01981 0.00711705 0)
(1.01572 0.00566462 0)
(1.01246 0.004504 0)
(1.00988 0.00357807 0)
(1.00782 0.00284036 0)
(1.0062 0.0022533 0)
(1.00491 0.00178657 0)
(1.00388 0.00141583 0)
(1.00307 0.00112154 0)
(1.00243 0.000888083 0)
(1.00192 0.000702966 0)
(1.00152 0.00055624 0)
(1.0012 0.000439985 0)
(1.00095 0.000347898 0)
(1.00075 0.000274962 0)
(1.00059 0.000217192 0)
(1.00047 0.000171425 0)
(1.00037 0.000135145 0)
(1.0003 0.00010635 0)
(1.00024 8.34629e-05 0)
(1.00019 6.52215e-05 0)
(1.00015 5.0597e-05 0)
(1.00012 3.87993e-05 0)
(1.0001 2.91642e-05 0)
(1.00008 2.11416e-05 0)
(1.00007 1.43095e-05 0)
(1.00007 8.27756e-06 0)
(1.00006 2.70509e-06 0)
(1.00227 -0.0129371 0)
(1.00693 -0.0136182 0)
(1.01196 -0.0150126 0)
(1.01763 -0.0171859 0)
(1.02424 -0.0202384 0)
(1.03215 -0.0243083 0)
(1.04176 -0.0295743 0)
(1.05358 -0.036259 0)
(1.0682 -0.0446302 0)
(1.08636 -0.0550019 0)
(1.10896 -0.0677293 0)
(1.13708 -0.0831983 0)
(1.17204 -0.101802 0)
(1.21537 -0.123902 0)
(1.26891 -0.149749 0)
(1.33471 -0.179363 0)
(1.41502 -0.21228 0)
(1.51213 -0.247007 0)
(1.62789 -0.279747 0)
(1.75692 -0.291387 0)
(1.88542 -0.277081 0)
(1.98704 -0.187626 0)
(2.06398 -0.197605 0)
(2.11216 -0.0491224 0)
(2.1249 -0.013472 0)
(2.1249 0.0134575 0)
(2.11216 0.0491049 0)
(2.06399 0.197578 0)
(1.98706 0.187591 0)
(1.88545 0.277029 0)
(1.75698 0.291315 0)
(1.62797 0.279652 0)
(1.51226 0.246888 0)
(1.4152 0.212133 0)
(1.33494 0.179181 0)
(1.26922 0.149523 0)
(1.21577 0.123619 0)
(1.17254 0.101448 0)
(1.13772 0.0827525 0)
(1.10978 0.0671681 0)
(1.0874 0.0542945 0)
(1.06952 0.0437379 0)
(1.05525 0.0351329 0)
(1.04388 0.0281529 0)
(1.03482 0.022514 0)
(1.02763 0.0179737 0)
(1.02191 0.0143283 0)
(1.01736 0.0114082 0)
(1.01376 0.00907374 0)
(1.0109 0.0072105 0)
(1.00863 0.00572546 0)
(1.00683 0.00454326 0)
(1.00541 0.00360308 0)
(1.00428 0.00285604 0)
(1.00338 0.00226288 0)
(1.00268 0.00179221 0)
(1.00212 0.00141894 0)
(1.00167 0.00112303 0)
(1.00132 0.00088854 0)
(1.00105 0.000702778 0)
(1.00083 0.000555653 0)
(1.00065 0.00043914 0)
(1.00052 0.000346861 0)
(1.00041 0.000273759 0)
(1.00032 0.000215815 0)
(1.00026 0.000169829 0)
(1.0002 0.000133277 0)
(1.00016 0.000104145 0)
(1.00013 8.07936e-05 0)
(1.00011 6.195e-05 0)
(1.00009 4.6565e-05 0)
(1.00007 3.37616e-05 0)
(1.00006 2.28518e-05 0)
(1.00006 1.32202e-05 0)
(1.00005 4.32268e-06 0)
(1.00181 -0.0170171 0)
(1.00554 -0.0179207 0)
(1.00957 -0.019772 0)
(1.01413 -0.0226611 0)
(1.01948 -0.0267268 0)
(1.02591 -0.0321617 0)
(1.0338 -0.0392176 0)
(1.04358 -0.0482127 0)
(1.05582 -0.0595381 0)
(1.07123 -0.0736637 0)
(1.0907 -0.0911412 0)
(1.11539 -0.1126 0)
(1.14677 -0.13873 0)
(1.18671 -0.17025 0)
(1.2376 -0.20783 0)
(1.30247 -0.251959 0)
(1.38518 -0.302699 0)
(1.49079 -0.359304 0)
(1.62533 -0.417749 0)
(1.78113 -0.438225 0)
(1.9328 -0.410406 0)
(2.04838 -0.2715 0)
(2.1193 -0.261594 0)
(2.16134 -0.0753429 0)
(2.18011 -0.0187712 1.31211e-35)
(2.18011 0.0187559 1.31211e-35)
(2.16133 0.0753238 0)
(2.1193 0.261562 0)
(2.04838 0.271458 0)
(1.93281 0.410339 0)
(1.78116 0.438129 0)
(1.62539 0.417622 0)
(1.49088 0.359145 0)
(1.38531 0.302504 0)
(1.30265 0.251718 0)
(1.23783 0.207531 0)
(1.18701 0.169878 0)
(1.14717 0.138265 0)
(1.1159 0.112015 0)
(1.09135 0.0904049 0)
(1.07205 0.0727358 0)
(1.05686 0.0583675 0)
(1.0449 0.0467353 0)
(1.03547 0.0373524 0)
(1.02803 0.0298068 0)
(1.02215 0.023754 0)
(1.01751 0.0189088 0)
(1.01384 0.0150373 0)
(1.01095 0.0119485 0)
(1.00865 0.00948729 0)
(1.00684 0.00752834 0)
(1.00541 0.00597062 0)
(1.00428 0.00473294 0)
(1.00338 0.00375025 0)
(1.00267 0.00297047 0)
(1.00211 0.00235204 0)
(1.00167 0.00186178 0)
(1.00132 0.00147327 0)
(1.00104 0.00116549 0)
(1.00083 0.000921726 0)
(1.00065 0.000728697 0)
(1.00052 0.000575855 0)
(1.00041 0.00045482 0)
(1.00032 0.000358944 0)
(1.00026 0.000282956 0)
(1.0002 0.00022266 0)
(1.00016 0.00017473 0)
(1.00013 0.000136533 0)
(1.0001 0.000105923 0)
(1.00008 8.1214e-05 0)
(1.00007 6.10405e-05 0)
(1.00006 4.42605e-05 0)
(1.00005 2.99559e-05 0)
(1.00005 1.73293e-05 0)
(1.00004 5.66823e-06 0)
(1.00124 -0.0200675 0)
(1.00379 -0.021144 0)
(1.00656 -0.0233517 0)
(1.00972 -0.0268022 0)
(1.01345 -0.0316692 0)
(1.01799 -0.0381953 0)
(1.02363 -0.0467021 0)
(1.03072 -0.0576026 0)
(1.03975 -0.0714163 0)
(1.05134 -0.0887862 0)
(1.06634 -0.110498 0)
(1.08591 -0.137498 0)
(1.11161 -0.170908 0)
(1.14564 -0.212038 0)
(1.1911 -0.262391 0)
(1.25251 -0.32369 0)
(1.33691 -0.398073 0)
(1.45623 -0.48886 0)
(1.62382 -0.59032 0)
(1.82367 -0.621313 0)
(2.00629 -0.561606 0)
(2.13615 -0.365735 0)
(2.19502 -0.297149 0)
(2.2247 -0.111512 0)
(2.25215 -0.0288272 0)
(2.25215 0.0288161 0)
(2.22469 0.111497 0)
(2.195 0.297116 0)
(2.13613 0.365691 0)
(2.00628 0.561529 0)
(1.82367 0.621198 0)
(1.62383 0.590164 0)
(1.45628 0.488668 0)
(1.33699 0.39784 0)
(1.25262 0.323405 0)
(1.19125 0.262038 0)
(1.14584 0.2116 0)
(1.11187 0.17036 0)
(1.08624 0.13681 0)
(1.06677 0.109632 0)
(1.05189 0.0876955 0)
(1.04044 0.0700403 0)
(1.0316 0.0558659 0)
(1.02475 0.0445092 0)
(1.01941 0.035426 0)
(1.01525 0.0281722 0)
(1.01199 0.0223867 0)
(1.00944 0.0177775 0)
(1.00744 0.0141091 0)
(1.00586 0.0111919 0)
(1.00462 0.00887384 0)
(1.00365 0.00703303 0)
(1.00288 0.00557207 0)
(1.00227 0.00441315 0)
(1.0018 0.00349424 0)
(1.00142 0.00276591 0)
(1.00112 0.00218883 0)
(1.00089 0.00173171 0)
(1.0007 0.00136971 0)
(1.00055 0.00108308 0)
(1.00044 0.000856163 0)
(1.00035 0.000676521 0)
(1.00027 0.000534288 0)
(1.00022 0.000421631 0)
(1.00017 0.000332352 0)
(1.00014 0.000261524 0)
(1.00011 0.000205219 0)
(1.00009 0.000160349 0)
(1.00007 0.000124404 0)
(1.00006 9.53813e-05 0)
(1.00005 7.16842e-05 0)
(1.00004 5.19814e-05 0)
(1.00003 3.51801e-05 0)
(1.00003 2.035e-05 0)
(1.00003 6.65717e-06 0)
(1.00058 -0.0218877 0)
(1.00178 -0.023075 0)
(1.0031 -0.0255123 0)
(1.00463 -0.0293281 0)
(1.00648 -0.0347233 0)
(1.00878 -0.0419814 0)
(1.01171 -0.0514826 0)
(1.01552 -0.0637232 0)
(1.02054 -0.0793414 0)
(1.02723 -0.0991501 0)
(1.03627 -0.124181 0)
(1.04864 -0.155742 0)
(1.06578 -0.195501 0)
(1.0899 -0.245599 0)
(1.12446 -0.308847 0)
(1.17487 -0.38906 0)
(1.24949 -0.491728 0)
(1.36019 -0.625224 0)
(1.50594 -0.767286 0)
(1.63646 -0.774724 0)
(1.68194 -0.636299 0)
(1.64978 -0.388739 0)
(1.56611 -0.24934 0)
(1.42074 -0.110428 -6.93188e-37)
(1.32167 -0.0302026 -1.50426e-36)
(1.32166 0.0301966 -1.50426e-36)
(1.42073 0.110417 -6.93188e-37)
(1.56609 0.249318 0)
(1.64975 0.388703 0)
(1.6819 0.636222 0)
(1.63642 0.774598 0)
(1.50591 0.767106 0)
(1.36019 0.625006 0)
(1.24951 0.491468 0)
(1.17491 0.388746 0)
(1.12452 0.308461 0)
(1.08998 0.245121 0)
(1.06589 0.194904 0)
(1.04878 0.154994 0)
(1.03646 0.12324 0)
(1.02747 0.0979647 0)
(1.02084 0.077846 0)
(1.01591 0.0618355 0)
(1.01221 0.0490987 0)
(1.00941 0.0389702 0)
(1.00728 0.0309196 0)
(1.00565 0.0245233 0)
(1.0044 0.0194437 0)
(1.00343 0.0154114 0)
(1.00268 0.0122118 0)
(1.0021 0.00967389 0)
(1.00165 0.00766147 0)
(1.0013 0.00606626 0)
(1.00102 0.00480214 0)
(1.0008 0.00380065 0)
(1.00063 0.00300742 0)
(1.0005 0.00237928 0)
(1.00039 0.00188195 0)
(1.00031 0.00148825 0)
(1.00024 0.00117663 0)
(1.00019 0.000929996 0)
(1.00015 0.000734784 0)
(1.00012 0.000580251 0)
(1.0001 0.000457869 0)
(1.00008 0.000360893 0)
(1.00006 0.000283972 0)
(1.00005 0.000222829 0)
(1.00004 0.000174099 0)
(1.00003 0.00013507 0)
(1.00002 0.000103558 0)
(1.00002 7.78239e-05 0)
(1.00002 5.64353e-05 0)
(1.00001 3.8196e-05 0)
(1.00001 2.20947e-05 0)
(1.00001 7.22843e-06 0)
(0.999878 -0.0223466 0)
(0.999633 -0.0235725 0)
(0.99939 -0.0260915 0)
(0.999154 -0.0300414 0)
(0.998938 -0.0356392 0)
(0.998766 -0.0431929 0)
(0.998682 -0.0531202 0)
(0.99876 -0.0659734 0)
(0.999125 -0.0824744 0)
(0.999974 -0.103563 0)
(1.00162 -0.13046 0)
(1.00456 -0.164766 0)
(1.00954 -0.208591 0)
(1.01768 -0.264767 0)
(1.03062 -0.337178 0)
(1.05071 -0.431229 0)
(1.08092 -0.554398 0)
(1.12427 -0.716598 0)
(1.16148 -0.858871 0)
(1.13273 -0.784907 0)
(0.986838 -0.52571 0)
(0.779636 -0.265117 2.44251e-38)
(0.377272 -0.0758538 -1.30551e-38)
(0 0 0)
(0 0 0)
(0 0 0)
(0 0 0)
(0.377265 0.0758483 -1.30551e-38)
(0.779611 0.265095 2.44251e-38)
(0.986794 0.525651 0)
(1.13266 0.784781 0)
(1.16142 0.858675 0)
(1.12422 0.716362 0)
(1.08088 0.554125 0)
(1.05067 0.430903 0)
(1.03058 0.336781 0)
(1.01764 0.264278 0)
(1.0095 0.207982 0)
(1.00451 0.164004 0)
(1.00156 0.129503 0)
(0.999894 0.102357 0)
(0.999025 0.0809534 0)
(0.998635 0.0640531 0)
(0.998525 0.0506947 0)
(0.99857 0.0401283 0)
(0.998694 0.0317666 0)
(0.99885 0.0251477 0)
(0.999013 0.0199074 0)
(0.999169 0.0157582 0)
(0.999309 0.0124729 0)
(0.999431 0.00987171 0)
(0.999536 0.0078122 0)
(0.999623 0.00618171 0)
(0.999696 0.00489098 0)
(0.999755 0.00386929 0)
(0.999804 0.00306064 0)
(0.999843 0.00242066 0)
(0.999875 0.00191422 0)
(0.9999 0.00151347 0)
(0.999921 0.00119638 0)
(0.999937 0.000945474 0)
(0.99995 0.000746928 0)
(0.99996 0.000589785 0)
(0.999969 0.00046536 0)
(0.999975 0.000366771 0)
(0.99998 0.000288584 0)
(0.999984 0.000226445 0)
(0.999987 0.000176916 0)
(0.99999 0.000137251 0)
(0.999992 0.000105228 0)
(0.999993 7.90744e-05 0)
(0.999994 5.73413e-05 0)
(0.999995 3.88106e-05 0)
(0.999996 2.24512e-05 0)
(0.999996 7.34559e-06 0)
(0.999171 -0.0213957 0)
(0.997474 -0.0225819 0)
(0.995656 -0.0250212 0)
(0.993632 -0.0288517 0)
(0.991311 -0.034291 0)
(0.988592 -0.0416498 0)
(0.985364 -0.0513518 0)
(0.981506 -0.0639616 0)
(0.976879 -0.0802242 0)
(0.971336 -0.101119 0)
(0.964723 -0.12794 0)
(0.956901 -0.162403 0)
(0.947762 -0.206794 0)
(0.937208 -0.264146 0)
(0.924889 -0.338422 0)
(0.909505 -0.434691 0)
(0.887703 -0.559352 0)
(0.853067 -0.720354 0)
(0.774135 -0.813396 0)
(0.594802 -0.622293 0)
(0.340725 -0.265091 1.86019e-39)
(0 0 0)
(0 0 0)
(0 0 0)
(0 0 0)
(0 0 0)
(0 0 0)
(0 0 0)
(0 0 0)
(0.340699 0.265058 1.86019e-39)
(0.594743 0.622193 0)
(0.774051 0.813198 0)
(0.852979 0.720111 0)
(0.887611 0.559079 0)
(0.9094 0.434372 0)
(0.924762 0.338039 0)
(0.937051 0.263676 0)
(0.947566 0.206211 0)
(0.956653 0.161675 0)
(0.96441 0.127026 0)
(0.970939 0.0999687 0)
(0.976377 0.078773 0)
(0.980871 0.0621294 0)
(0.984562 0.0490372 0)
(0.987579 0.0387246 0)
(0.990032 0.0305934 0)
(0.992019 0.0241772 0)
(0.993622 0.0191111 0)
(0.994912 0.0151092 0)
(0.995947 0.0119468 0)
(0.996776 0.00944701 0)
(0.997438 0.00747064 0)
(0.997966 0.00590783 0)
(0.998386 0.00467192 0)
(0.99872 0.00369444 0)
(0.998986 0.00292131 0)
(0.999197 0.0023098 0)
(0.999364 0.00182611 0)
(0.999497 0.00144352 0)
(0.999602 0.0011409 0)
(0.999685 0.000901518 0)
(0.999751 0.000712123 0)
(0.999803 0.000562248 0)
(0.999844 0.000443602 0)
(0.999876 0.000349602 0)
(0.999902 0.000275059 0)
(0.999922 0.000215829 0)
(0.999938 0.000168615 0)
(0.99995 0.000130805 0)
(0.999959 0.000100286 0)
(0.999967 7.53594e-05 0)
(0.999972 5.46461e-05 0)
(0.999976 3.69863e-05 0)
(0.999978 2.13962e-05 0)
(0.999979 7.00086e-06 0)
(0.998509 -0.0190764 0)
(0.995449 -0.0201438 0)
(0.992148 -0.0223404 0)
(0.988433 -0.0257936 0)
(0.98411 -0.0307047 0)
(0.978955 -0.0373615 0)
(0.972699 -0.0461571 0)
(0.965017 -0.0576154 0)
(0.955498 -0.0724246 0)
(0.943603 -0.0914816 0)
(0.928587 -0.115949 0)
(0.909346 -0.14733 0)
(0.88419 -0.187572 0)
(0.850592 -0.239216 0)
(0.805181 -0.305621 0)
(0.744247 -0.391174 0)
(0.664395 -0.501215 0)
(0.561898 -0.641357 0)
(0.413441 -0.665004 0)
(0.219991 -0.350961 -2.16283e-40)
(0 0 0)
(0 0 0)
(0 0 0)
(0 0 0)
(0 0 0)
(0 0 0)
(0 0 0)
(0 0 0)
(0 0 0)
(0 0 0)
(0.219957 0.350891 -2.16283e-40)
(0.413377 0.664829 0)
(0.561802 0.641126 0)
(0.664272 0.500963 0)
(0.744088 0.390884 0)
(0.804976 0.305276 0)
(0.85033 0.238795 0)
(0.883855 0.187052 0)
(0.908919 0.146683 0)
(0.928045 0.115137 0)
(0.942915 0.0904588 0)
(0.954625 0.0711348 0)
(0.963912 0.0559869 0)
(0.971301 0.0440996 0)
(0.977186 0.0347606 0)
(0.981874 0.027416 0)
(0.985607 0.0216345 0)
(0.988578 0.0170796 0)
(0.99094 0.0134884 0)
(0.992817 0.0106554 0)
(0.994308 0.00841924 0)
(0.995491 0.00665351 0)
(0.996429 0.00525874 0)
(0.997173 0.0041567 0)
(0.997763 0.00328575 0)
(0.99823 0.00259732 0)
(0.9986 0.00205308 0)
(0.998892 0.0016228 0)
(0.999124 0.00128258 0)
(0.999307 0.00101355 0)
(0.999452 0.000800789 0)
(0.999567 0.000632492 0)
(0.999657 0.00049933 0)
(0.999729 0.000393936 0)
(0.999785 0.000310448 0)
(0.99983 0.000244239 0)
(0.999865 0.000191642 0)
(0.999892 0.000149714 0)
(0.999913 0.000116135 0)
(0.99993 8.90386e-05 0)
(0.999942 6.69077e-05 0)
(0.999951 4.85176e-05 0)
(0.999958 3.28379e-05 0)
(0.999962 1.89969e-05 0)
(0.999964 6.21613e-06 0)
(0.997937 -0.0155223 0)
(0.993697 -0.0163974 0)
(0.98911 -0.0181992 0)
(0.983924 -0.0210341 0)
(0.977853 -0.0250703 0)
(0.970562 -0.0305487 0)
(0.961646 -0.0377983 0)
(0.950611 -0.0472572 0)
(0.936847 -0.0594998 0)
(0.919606 -0.0752706 0)
(0.897987 -0.0955247 0)
(0.870943 -0.12147 0)
(0.837275 -0.154608 0)
(0.795452 -0.196759 0)
(0.742865 -0.25008 0)
(0.674191 -0.317107 0)
(0.579646 -0.400886 0)
(0.445725 -0.505269 0)
(0.250522 -0.457432 0)
(0.00715225 -0.0156181 -7.74296e-42)
(0 0 0)
(0 0 0)
(0 0 0)
(0 0 0)
(0 0 0)
(0 0 0)
(0 0 0)
(0 0 0)
(0 0 0)
(0 0 0)
(0.00715063 0.0156147 -7.74296e-42)
(0.25046 0.457311 0)
(0.445609 0.505069 0)
(0.579488 0.400672 0)
(0.673981 0.316865 0)
(0.742592 0.249796 0)
(0.795099 0.196415 0)
(0.836822 0.154185 0)
(0.870364 0.120943 0)
(0.89725 0.0948647 0)
(0.918669 0.0744404 0)
(0.935659 0.0584531 0)
(0.949106 0.0459356 0)
(0.959739 0.0361283 0)
(0.968149 0.0284373 0)
(0.9748 0.0223999 0)
(0.980062 0.0176558 0)
(0.984225 0.0139244 0)
(0.987519 0.0109869 0)
(0.990127 0.00867269 0)
(0.99219 0.0068482 0)
(0.993822 0.00540898 0)
(0.995114 0.00427313 0)
(0.996136 0.00337633 0)
(0.996945 0.00266803 0)
(0.997584 0.00210845 0)
(0.99809 0.00166628 0)
(0.99849 0.00131682 0)
(0.998806 0.00104059 0)
(0.999056 0.000822215 0)
(0.999254 0.000649549 0)
(0.99941 0.000512995 0)
(0.999534 0.00040496 0)
(0.999631 0.000319467 0)
(0.999708 0.000251754 0)
(0.999768 0.000198052 0)
(0.999816 0.000155398 0)
(0.999853 0.000121398 0)
(0.999882 9.41659e-05 0)
(0.999904 7.21932e-05 0)
(0.999921 5.42483e-05 0)
(0.999934 3.93382e-05 0)
(0.999943 2.66251e-05 0)
(0.999948 1.54041e-05 0)
(0.999951 5.0411e-06 0)
(0.997495 -0.0109538 0)
(0.992343 -0.0115747 0)
(0.986762 -0.0128537 0)
(0.980435 -0.014867 0)
(0.973004 -0.0177357 0)
(0.964045 -0.0216326 0)
(0.95304 -0.0267939 0)
(0.939347 -0.0335337 0)
(0.922151 -0.0422629 0)
(0.900398 -0.0535134 0)
(0.872702 -0.0679662 0)
(0.837197 -0.0864799 0)
(0.791373 -0.110107 0)
(0.731994 -0.140058 0)
(0.655369 -0.17757 0)
(0.558126 -0.223699 0)
(0.43771 -0.279332 0)
(0.290689 -0.345882 0)
(0.127708 -0.211282 4.57748e-42)
(0 0 0)
(0 0 0)
(0 0 0)
(0 0 0)
(0 0 0)
(0 0 0)
(0 0 0)
(0 0 0)
(0 0 0)
(0 0 0)
(0 0 0)
(0 0 0)
(0.127672 0.211213 4.57748e-42)
(0.290602 0.345733 0)
(0.437556 0.279175 0)
(0.557898 0.223525 0)
(0.655056 0.177367 0)
(0.731579 0.139814 0)
(0.790834 0.109808 0)
(0.836504 0.0861084 0)
(0.871817 0.0675011 0)
(0.899272 0.0529287 0)
(0.920722 0.0415257 0)
(0.937535 0.0326029 0)
(0.950745 0.0256177 0)
(0.961139 0.0201452 0)
(0.969325 0.0158542 0)
(0.975779 0.0124862 0)
(0.980869 0.0098401 0)
(0.984887 0.00775924 0)
(0.988059 0.00612142 0)
(0.990564 0.00483131 0)
(0.992543 0.0038144 0)
(0.994106 0.00301235 0)
(0.995342 0.00237945 0)
(0.996318 0.00187982 0)
(0.99709 0.00148525 0)
(0.9977 0.00117357 0)
(0.998182 0.000927315 0)
(0.998564 0.000732711 0)
(0.998865 0.00057889 0)
(0.999103 0.000457284 0)
(0.999291 0.000361129 0)
(0.999439 0.000285061 0)
(0.999556 0.000224868 0)
(0.999648 0.000177203 0)
(0.999721 0.000139397 0)
(0.999778 0.000109374 0)
(0.999823 8.5442e-05 0)
(0.999858 6.62748e-05 0)
(0.999885 5.0809e-05 0)
(0.999905 3.81783e-05 0)
(0.99992 2.76865e-05 0)
(0.999931 1.87397e-05 0)
(0.999938 1.08436e-05 0)
(0.999941 3.54983e-06 0)
(0.997216 -0.00566412 0)
(0.991489 -0.00598628 0)
(0.985278 -0.00664995 0)
(0.978229 -0.00769502 0)
(0.969937 -0.0091845 0)
(0.959921 -0.0112084 0)
(0.947597 -0.0138892 0)
(0.932239 -0.017388 0)
(0.91294 -0.0219124 0)
(0.888552 -0.0277235 0)
(0.857633 -0.0351408 0)
(0.818378 -0.0445454 0)
(0.768548 -0.056388 0)
(0.705376 -0.0712251 0)
(0.625409 -0.0898105 0)
(0.524369 -0.113175 0)
(0.39729 -0.142361 0)
(0.238943 -0.177484 0)
(0.0654246 -0.0723241 8.956e-43)
(0 0 0)
(0 0 0)
(0 0 0)
(0 0 0)
(0 0 0)
(0 0 0)
(0 0 0)
(0 0 0)
(0 0 0)
(0 0 0)
(0 0 0)
(0 0 0)
(0.0654044 0.0722984 8.956e-43)
(0.238858 0.177406 0)
(0.397127 0.14228 0)
(0.524121 0.113085 0)
(0.625066 0.0897056 0)
(0.70492 0.0710991 0)
(0.767954 0.0562334 0)
(0.817613 0.0443534 0)
(0.856655 0.0349006 0)
(0.887308 0.0274215 0)
(0.91136 0.0215317 0)
(0.930236 0.0169072 0)
(0.945058 0.0132816 0)
(0.956705 0.0104401 0)
(0.965865 0.00821251 0)
(0.973075 0.00646489 0)
(0.978753 0.00509265 0)
(0.983228 0.00401415 0)
(0.986757 0.00316576 0)
(0.989541 0.00249782 0)
(0.991738 0.00197157 0)
(0.993473 0.00155668 0)
(0.994843 0.0012294 0)
(0.995925 0.000971099 0)
(0.99678 0.000767171 0)
(0.997456 0.000606116 0)
(0.99799 0.000478889 0)
(0.998411 0.000378364 0)
(0.998745 0.000298917 0)
(0.999008 0.000236109 0)
(0.999216 0.000186453 0)
(0.99938 0.000147174 0)
(0.999509 0.000116092 0)
(0.999611 9.14857e-05 0)
(0.999692 7.1966e-05 0)
(0.999755 5.64667e-05 0)
(0.999804 4.41088e-05 0)
(0.999843 3.42119e-05 0)
(0.999873 2.6228e-05 0)
(0.999895 1.97078e-05 0)
(0.999912 1.42953e-05 0)
(0.999924 9.67673e-06 0)
(0.999931 5.59932e-06 0)
(0.999935 1.83506e-06 0)
(0.99712 -1.07701e-09 0)
(0.991197 -6.47918e-09 0)
(0.984771 -4.35347e-10 0)
(0.977475 -3.58036e-09 0)
(0.968888 5.36814e-09 0)
(0.958511 5.09698e-10 0)
(0.945738 7.52381e-10 0)
(0.929818 -5.93471e-10 0)
(0.909817 -1.56346e-11 0)
(0.884569 5.24969e-10 0)
(0.852624 -2.95685e-09 0)
(0.812192 -7.10488e-09 0)
(0.761089 1.08724e-08 0)
(0.696648 4.39885e-09 0)
(0.615579 4.03502e-09 0)
(0.513634 -1.08034e-09 0)
(0.385176 -1.03138e-08 0)
(0.223678 1.00038e-09 0)
(0.0462822 1.155e-09 -5.78845e-44)
(0 0 0)
(0 0 0)
(0 0 0)
(0 0 0)
(0 0 0)
(0 0 0)
(0 0 0)
(0 0 0)
(0 0 0)
(0 0 0)
(0 0 0)
(0 0 0)
(0.046267 2.24738e-09 -5.78844e-44)
(0.223594 3.47232e-09 0)
(0.38501 -1.28908e-08 0)
(0.51338 3.28992e-09 0)
(0.615226 6.12274e-09 0)
(0.696177 3.40273e-09 0)
(0.760475 1.77769e-09 0)
(0.811403 -1.56332e-09 0)
(0.851615 3.76033e-09 0)
(0.883285 4.8389e-09 0)
(0.908186 1.52736e-09 0)
(0.927749 -2.93976e-09 0)
(0.943115 -3.92686e-09 0)
(0.95519 1.13738e-09 0)
(0.964682 4.58539e-09 0)
(0.97215 4.73946e-09 0)
(0.97803 5.12787e-09 0)
(0.982661 3.7537e-09 0)
(0.986312 -4.77219e-10 0)
(0.989192 -2.24591e-09 0)
(0.991464 3.37464e-10 0)
(0.993257 2.05654e-09 0)
(0.994673 1.09401e-09 0)
(0.995792 -2.89864e-10 0)
(0.996675 -2.16634e-09 0)
(0.997373 -2.94574e-09 0)
(0.997924 -2.48676e-09 0)
(0.99836 -1.20569e-09 0)
(0.998704 3.25283e-09 0)
(0.998975 -6.42827e-10 0)
(0.99919 -4.7564e-09 0)
(0.99936 -3.55478e-09 0)
(0.999493 -5.24872e-09 0)
(0.999599 1.97686e-09 0)
(0.999682 3.10966e-10 0)
(0.999747 3.56301e-09 0)
(0.999798 -1.03094e-09 0)
(0.999838 -2.70665e-09 0)
(0.999869 -3.47484e-10 0)
(0.999892 -1.22592e-09 0)
(0.999909 3.45424e-09 0)
(0.999921 4.03457e-09 0)
(0.999929 1.0327e-09 0)
(0.999933 3.62969e-09 0)
(0.997216 0.00566412 0)
(0.991489 0.00598627 0)
(0.985278 0.00664995 0)
(0.978229 0.00769501 0)
(0.969937 0.0091845 0)
(0.959921 0.0112084 0)
(0.947597 0.0138892 0)
(0.932239 0.017388 0)
(0.91294 0.0219124 0)
(0.888552 0.0277235 0)
(0.857633 0.0351408 0)
(0.818378 0.0445454 0)
(0.768548 0.056388 0)
(0.705376 0.0712251 0)
(0.625409 0.0898106 0)
(0.524369 0.113175 0)
(0.39729 0.142361 0)
(0.238943 0.177484 0)
(0.0654246 0.0723241 -3.59108e-44)
(0 0 0)
(0 0 0)
(0 0 0)
(0 0 0)
(0 0 0)
(0 0 0)
(0 0 0)
(0 0 0)
(0 0 0)
(0 0 0)
(0 0 0)
(0 0 0)
(0.0654044 -0.0722984 -3.59108e-44)
(0.238858 -0.177406 0)
(0.397127 -0.14228 0)
(0.524121 -0.113085 0)
(0.625066 -0.0897056 0)
(0.70492 -0.0710991 0)
(0.767954 -0.0562334 0)
(0.817613 -0.0443534 0)
(0.856655 -0.0349006 0)
(0.887308 -0.0274215 0)
(0.91136 -0.0215317 0)
(0.930236 -0.0169072 0)
(0.945058 -0.0132816 0)
(0.956705 -0.0104401 0)
(0.965865 -0.00821251 0)
(0.973075 -0.00646488 0)
(0.978753 -0.00509263 0)
(0.983228 -0.00401414 0)
(0.986757 -0.00316576 0)
(0.989541 -0.00249783 0)
(0.991738 -0.00197157 0)
(0.993473 -0.00155668 0)
(0.994843 -0.00122939 0)
(0.995925 -0.000971099 0)
(0.99678 -0.000767177 0)
(0.997456 -0.000606123 0)
(0.99799 -0.000478893 0)
(0.998411 -0.000378366 0)
(0.998745 -0.000298912 0)
(0.999008 -0.000236112 0)
(0.999216 -0.000186461 0)
(0.99938 -0.00014718 0)
(0.999509 -0.000116099 0)
(0.999611 -9.14816e-05 0)
(0.999692 -7.19687e-05 0)
(0.999755 -5.64621e-05 0)
(0.999804 -4.411e-05 0)
(0.999843 -3.42159e-05 0)
(0.999873 -2.62285e-05 0)
(0.999895 -1.97111e-05 0)
(0.999912 -1.42909e-05 0)
(0.999924 -9.66728e-06 0)
(0.999931 -5.59291e-06 0)
(0.999935 -1.82856e-06 0)
(0.997495 0.0109538 0)
(0.992343 0.0115747 0)
(0.986762 0.0128537 0)
(0.980435 0.014867 0)
(0.973004 0.0177357 0)
(0.964045 0.0216326 0)
(0.95304 0.0267939 0)
(0.939347 0.0335337 0)
(0.922151 0.0422629 0)
(0.900398 0.0535134 0)
(0.872702 0.0679662 0)
(0.837197 0.0864799 0)
(0.791373 0.110107 0)
(0.731994 0.140058 0)
(0.655369 0.17757 0)
(0.558126 0.223699 0)
(0.43771 0.279332 0)
(0.290689 0.345882 0)
(0.127708 0.211282 1.29666e-45)
(0 0 0)
(0 0 0)
(0 0 0)
(0 0 0)
(0 0 0)
(0 0 0)
(0 0 0)
(0 0 0)
(0 0 0)
(0 0 0)
(0 0 0)
(0 0 0)
(0.127672 -0.211213 1.29667e-45)
(0.290602 -0.345733 0)
(0.437556 -0.279175 0)
(0.557898 -0.223525 0)
(0.655056 -0.177367 0)
(0.731579 -0.139814 0)
(0.790834 -0.109808 0)
(0.836504 -0.0861084 0)
(0.871817 -0.0675011 0)
(0.899272 -0.0529287 0)
(0.920722 -0.0415257 0)
(0.937535 -0.0326029 0)
(0.950745 -0.0256177 0)
(0.961139 -0.0201452 0)
(0.969325 -0.0158542 0)
(0.975779 -0.0124862 0)
(0.980869 -0.00984009 0)
(0.984887 -0.00775923 0)
(0.988059 -0.00612142 0)
(0.990564 -0.00483132 0)
(0.992543 -0.0038144 0)
(0.994106 -0.00301235 0)
(0.995342 -0.00237945 0)
(0.996318 -0.00187982 0)
(0.99709 -0.00148526 0)
(0.9977 -0.00117358 0)
(0.998182 -0.000927317 0)
(0.998564 -0.000732713 0)
(0.998865 -0.000578892 0)
(0.999103 -0.000457287 0)
(0.999291 -0.000361134 0)
(0.999439 -0.000285067 0)
(0.999556 -0.000224872 0)
(0.999648 -0.0001772 0)
(0.999721 -0.000139404 0)
(0.999778 -0.00010937 0)
(0.999823 -8.54409e-05 0)
(0.999858 -6.62778e-05 0)
(0.999885 -5.08101e-05 0)
(0.999905 -3.81802e-05 0)
(0.99992 -2.76851e-05 0)
(0.999931 -1.87336e-05 0)
(0.999938 -1.08362e-05 0)
(0.999941 -3.5484e-06 0)
(0.997937 0.0155223 0)
(0.993697 0.0163974 0)
(0.98911 0.0181992 0)
(0.983924 0.0210341 0)
(0.977853 0.0250703 0)
(0.970562 0.0305487 0)
(0.961646 0.0377983 0)
(0.950611 0.0472572 0)
(0.936847 0.0594998 0)
(0.919606 0.0752706 0)
(0.897987 0.0955247 0)
(0.870943 0.12147 0)
(0.837275 0.154608 0)
(0.795452 0.196759 0)
(0.742865 0.25008 0)
(0.674191 0.317107 0)
(0.579646 0.400886 0)
(0.445725 0.505269 0)
(0.250522 0.457432 0)
(0.00715225 0.0156181 -2.00481e-45)
(0 0 0)
(0 0 0)
(0 0 0)
(0 0 0)
(0 0 0)
(0 0 0)
(0 0 0)
(0 0 0)
(0 0 0)
(0 0 0)
(0.00715063 -0.0156147 -2.00476e-45)
(0.250459 -0.457311 0)
(0.445609 -0.505069 0)
(0.579488 -0.400672 0)
(0.673981 -0.316865 0)
(0.742592 -0.249796 0)
(0.795099 -0.196415 0)
(0.836822 -0.154185 0)
(0.870364 -0.120943 0)
(0.89725 -0.0948647 0)
(0.918669 -0.0744405 0)
(0.935659 -0.058453 0)
(0.949106 -0.0459356 0)
(0.959739 -0.0361283 0)
(0.968149 -0.0284373 0)
(0.9748 -0.0223999 0)
(0.980062 -0.0176558 0)
(0.984225 -0.0139244 0)
(0.987519 -0.0109869 0)
(0.990127 -0.00867269 0)
(0.99219 -0.0068482 0)
(0.993822 -0.00540899 0)
(0.995114 -0.00427313 0)
(0.996136 -0.00337632 0)
(0.996945 -0.00266802 0)
(0.997584 -0.00210845 0)
(0.99809 -0.00166628 0)
(0.99849 -0.00131682 0)
(0.998806 -0.0010406 0)
(0.999056 -0.000822219 0)
(0.999254 -0.000649547 0)
(0.99941 -0.000512997 0)
(0.999534 -0.00040497 0)
(0.999631 -0.00031947 0)
(0.999708 -0.000251752 0)
(0.999768 -0.000198058 0)
(0.999816 -0.000155393 0)
(0.999853 -0.000121397 0)
(0.999882 -9.41681e-05 0)
(0.999904 -7.21931e-05 0)
(0.999921 -5.4248e-05 0)
(0.999934 -3.93394e-05 0)
(0.999943 -2.66296e-05 0)
(0.999948 -1.54025e-05 0)
(0.999951 -5.04416e-06 0)
(0.998509 0.0190764 0)
(0.995449 0.0201438 0)
(0.992148 0.0223404 0)
(0.988433 0.0257936 0)
(0.98411 0.0307047 0)
(0.978955 0.0373615 0)
(0.972699 0.0461571 0)
(0.965017 0.0576154 0)
(0.955498 0.0724246 0)
(0.943603 0.0914816 0)
(0.928587 0.115949 0)
(0.909346 0.14733 0)
(0.88419 0.187572 0)
(0.850592 0.239216 0)
(0.805181 0.305621 0)
(0.744247 0.391174 0)
(0.664395 0.501215 0)
(0.561898 0.641357 0)
(0.413441 0.665004 0)
(0.219991 0.350961 -2.20894e-44)
(0 0 0)
(0 0 0)
(0 0 0)
(0 0 0)
(0 0 0)
(0 0 0)
(0 0 0)
(0 0 0)
(0 0 0)
(0 0 0)
(0.219957 -0.350891 -2.20894e-44)
(0.413377 -0.664829 0)
(0.561802 -0.641126 0)
(0.664272 -0.500963 0)
(0.744088 -0.390884 0)
(0.804976 -0.305276 0)
(0.85033 -0.238795 0)
(0.883855 -0.187052 0)
(0.908919 -0.146683 0)
(0.928045 -0.115137 0)
(0.942915 -0.0904589 0)
(0.954625 -0.0711348 0)
(0.963912 -0.0559869 0)
(0.971301 -0.0440996 0)
(0.977186 -0.0347606 0)
(0.981874 -0.027416 0)
(0.985607 -0.0216345 0)
(0.988578 -0.0170796 0)
(0.99094 -0.0134884 0)
(0.992817 -0.0106554 0)
(0.994308 -0.00841924 0)
(0.995491 -0.00665351 0)
(0.996429 -0.00525874 0)
(0.997173 -0.00415669 0)
(0.997763 -0.00328575 0)
(0.99823 -0.00259731 0)
(0.9986 -0.00205309 0)
(0.998892 -0.00162281 0)
(0.999124 -0.00128259 0)
(0.999307 -0.00101356 0)
(0.999452 -0.000800785 0)
(0.999567 -0.000632492 0)
(0.999657 -0.000499337 0)
(0.999729 -0.000393937 0)
(0.999785 -0.00031045 0)
(0.99983 -0.000244247 0)
(0.999865 -0.000191639 0)
(0.999892 -0.000149716 0)
(0.999913 -0.000116135 0)
(0.99993 -8.90356e-05 0)
(0.999942 -6.69084e-05 0)
(0.999951 -4.85174e-05 0)
(0.999958 -3.28468e-05 0)
(0.999962 -1.89976e-05 0)
(0.999964 -6.21493e-06 0)
(0.999171 0.0213957 0)
(0.997474 0.0225819 0)
(0.995656 0.0250212 0)
(0.993632 0.0288517 0)
(0.991311 0.034291 0)
(0.988592 0.0416498 0)
(0.985364 0.0513518 0)
(0.981506 0.0639616 0)
(0.976879 0.0802242 0)
(0.971336 0.101119 0)
(0.964723 0.12794 0)
(0.956901 0.162403 0)
(0.947762 0.206794 0)
(0.937208 0.264146 0)
(0.924889 0.338422 0)
(0.909505 0.434691 0)
(0.887703 0.559352 0)
(0.853067 0.720354 0)
(0.774135 0.813396 0)
(0.594802 0.622293 0)
(0.340725 0.265091 1.21729e-43)
(0 0 0)
(0 0 0)
(0 0 0)
(0 0 0)
(0 0 0)
(0 0 0)
(0 0 0)
(0 0 0)
(0.340699 -0.265058 1.21736e-43)
(0.594743 -0.622193 0)
(0.774051 -0.813198 0)
(0.852979 -0.720111 0)
(0.887611 -0.559079 0)
(0.9094 -0.434372 0)
(0.924762 -0.338039 0)
(0.937051 -0.263676 0)
(0.947566 -0.206211 0)
(0.956653 -0.161675 0)
(0.96441 -0.127026 0)
(0.970939 -0.0999687 0)