# vtk DataFile Version 2.0
sampleSurface
ASCII
DATASET POLYDATA
POINTS 950 float
0 0 -0.002
0 0 0.002
0 -0.000383178 0.002
0 -0.000383178 -0.002
-0.000791418 0 -0.002
-0.000791418 0 0.002
0 -0.000801036 0.002
0 -0.000801036 -0.002
0 -0.00125671 0.002
0 -0.00125671 -0.002
-0.00161577 0 -0.002
-0.00161577 0 0.002
0 -0.00175363 0.002
0 -0.00175363 -0.002
0 -0.00229553 0.002
0 -0.00229553 -0.002
-0.00247443 0 -0.002
-0.00247443 0 0.002
0 -0.00288647 0.002
0 -0.00288647 -0.002
-0.00336883 0 -0.002
-0.00336883 0 0.002
0 -0.00353089 0.002
0 -0.00353089 -0.002
0 -0.00423364 0.002
0 -0.00423364 -0.002
-0.00430044 0 -0.002
-0.00430044 0 0.002
0 -0.005 -0.002
0 -0.005 0.002
-0.00527083 0 -0.002
-0.00527083 0 0.002
0 -0.00613333 0.002
0 -0.00613333 -0.002
-0.0062816 0 -0.002
-0.0062816 0 0.002
0 -0.00726667 0.002
0 -0.00726667 -0.002
-0.00733443 0 -0.002
-0.00733443 0 0.002
0 -0.0084 0.002
0 -0.0084 -0.002
-0.00843108 0 -0.002
-0.00843108 0 0.002
0 -0.00953333 0.002
0 -0.00953333 -0.002
-0.00957337 0 -0.002
-0.00957337 0 0.002
0 -0.0106667 0.002
0 -0.0106667 -0.002
-0.0107632 0 -0.002
-0.0107632 0 0.002
0 -0.0118 0.002
0 -0.0118 -0.002
-0.0120025 0 -0.002
-0.0120025 0 0.002
0 -0.0129333 0.002
0 -0.0129333 -0.002
-0.0132934 0 -0.002
-0.0132934 0 0.002
0 -0.0140667 0.002
0 -0.0140667 -0.002
-0.0146381 0 -0.002
-0.0146381 0 0.002
0 -0.0152 0.002
0 -0.0152 -0.002
-0.0160387 0 -0.002
-0.0160387 0 0.002
0 -0.0163333 0.002
0 -0.0163333 -0.002
0 -0.0174667 0.002
0 -0.0174667 -0.002
-0.0174976 0 -0.002
-0.0174976 0 0.002
0 -0.0186 0.002
0 -0.0186 -0.002
-0.0190172 0 -0.002
-0.0190172 0 0.002
0 -0.0197333 0.002
0 -0.0197333 -0.002
-0.0206 0 -0.002
-0.0206 0 0.002
0 -0.0208667 0.002
0 -0.0208667 -0.002
0 -0.022 0.002
0 -0.022 -0.002
0 -0.0231333 0.002
0 -0.0231333 -0.002
0 -0.0242667 0.002
0 -0.0242667 -0.002
0 0.0254 0.002
0 0.0254 -0.002
0 -0.0254 -0.002
0 -0.0254 0.002
0.000528387 0.0254 0.002
0.000528387 0.0254 -0.002
0.000528387 -0.0254 -0.002
0.000528387 -0.0254 0.002
-0.000791418 0.0254 0.002
-0.000791418 0.0254 -0.002
0.00106088 0.0254 0.002
0.00106088 0.0254 -0.002
0.00106088 -0.0254 -0.002
0.00106088 -0.0254 0.002
0.00159752 0.0254 0.002
0.00159752 0.0254 -0.002
0.00159752 -0.0254 -0.002
0.00159752 -0.0254 0.002
-0.00161577 0.0254 0.002
-0.00161577 0.0254 -0.002
0.00213833 0.0254 0.002
0.00213833 0.0254 -0.002
0.00213833 -0.0254 -0.002
0.00213833 -0.0254 0.002
-0.00247443 0.0254 0.002
-0.00247443 0.0254 -0.002
0.00268334 0.0254 0.002
0.00268334 0.0254 -0.002
0.00268334 -0.0254 -0.002
0.00268334 -0.0254 0.002
0.00323259 0.0254 0.002
0.00323259 0.0254 -0.002
0.00323259 -0.0254 -0.002
0.00323259 -0.0254 0.002
-0.00336883 0.0254 0.002
-0.00336883 0.0254 -0.002
0.00378611 0.0254 0.002
0.00378611 0.0254 -0.002
0.00378611 -0.0254 -0.002
0.00378611 -0.0254 0.002
-0.00430044 0.0254 0.002
-0.00430044 0.0254 -0.002
0.00434393 0.0254 0.002
0.00434393 0.0254 -0.002
0.00434393 -0.0254 -0.002
0.00434393 -0.0254 0.002
0.00490609 0.0254 0.002
0.00490609 0.0254 -0.002
0.00490609 -0.0254 -0.002
0.00490609 -0.0254 0.002
-0.00527083 0.0254 0.002
-0.00527083 0.0254 -0.002
0.00547262 0.0254 0.002
0.00547262 0.0254 -0.002
0.00547262 -0.0254 -0.002
0.00547262 -0.0254 0.002
0.00604356 0.0254 0.002
0.00604356 0.0254 -0.002
0.00604356 -0.0254 -0.002
0.00604356 -0.0254 0.002
-0.0062816 0.0254 0.002
-0.0062816 0.0254 -0.002
0.00661893 0.0254 0.002
0.00661893 0.0254 -0.002
0.00661893 -0.0254 -0.002
0.00661893 -0.0254 0.002
0.00719878 0.0254 0.002
0.00719878 0.0254 -0.002
0.00719878 -0.0254 -0.002
0.00719878 -0.0254 0.002
-0.00733443 0.0254 0.002
-0.00733443 0.0254 -0.002
0.00778313 0.0254 0.002
0.00778313 0.0254 -0.002
0.00778313 -0.0254 -0.002
0.00778313 -0.0254 0.002
0.00837203 0.0254 0.002
0.00837203 0.0254 -0.002
0.00837203 -0.0254 -0.002
0.00837203 -0.0254 0.002
-0.00843108 0.0254 0.002
-0.00843108 0.0254 -0.002
0.00896551 0.0254 0.002
0.00896551 0.0254 -0.002
0.00896551 -0.0254 -0.002
0.00896551 -0.0254 0.002
0.0095636 0.0254 0.002
0.0095636 0.0254 -0.002
0.0095636 -0.0254 -0.002
0.0095636 -0.0254 0.002
-0.00957337 0.0254 0.002
-0.00957337 0.0254 -0.002
0.0101663 0.0254 0.002
0.0101663 0.0254 -0.002
0.0101663 -0.0254 -0.002
0.0101663 -0.0254 0.002
-0.0107632 0.0254 0.002
-0.0107632 0.0254 -0.002
0.0107738 0.0254 0.002
0.0107738 0.0254 -0.002
0.0107738 -0.0254 -0.002
0.0107738 -0.0254 0.002
0.0113859 0.0254 0.002
0.0113859 0.0254 -0.002
0.0113859 -0.0254 -0.002
0.0113859 -0.0254 0.002
-0.0120025 0.0254 0.002
-0.0120025 0.0254 -0.002
0.0120028 0.0254 0.002
0.0120028 0.0254 -0.002
0.0120028 -0.0254 -0.002
0.0120028 -0.0254 0.002
0.0126245 0.0254 0.002
0.0126245 0.0254 -0.002
0.0126245 -0.0254 -0.002
0.0126245 -0.0254 0.002
0.0132511 0.0254 0.002
0.0132511 0.0254 -0.002
0.0132511 -0.0254 -0.002
0.0132511 -0.0254 0.002
-0.0132934 0.0254 0.002
-0.0132934 0.0254 -0.002
0.0138825 0.0254 0.002
0.0138825 0.0254 -0.002
0.0138825 -0.0254 -0.002
0.0138825 -0.0254 0.002
0.0145188 0.0254 0.002
0.0145188 0.0254 -0.002
0.0145188 -0.0254 -0.002
0.0145188 -0.0254 0.002
-0.0146381 0.0254 0.002
-0.0146381 0.0254 -0.002
0.0151601 0.0254 0.002
0.0151601 0.0254 -0.002
0.0151601 -0.0254 -0.002
0.0151601 -0.0254 0.002
0.0158063 0.0254 0.002
0.0158063 0.0254 -0.002
0.0158063 -0.0254 -0.002
0.0158063 -0.0254 0.002
-0.0160387 0.0254 0.002
-0.0160387 0.0254 -0.002
0.0164576 0.0254 0.002
0.0164576 0.0254 -0.002
0.0164576 -0.0254 -0.002
0.0164576 -0.0254 0.002
0.0171139 0.0254 0.002
0.0171139 0.0254 -0.002
0.0171139 -0.0254 -0.002
0.0171139 -0.0254 0.002
-0.0174976 0.0254 0.002
-0.0174976 0.0254 -0.002
0.0177754 0.0254 0.002
0.0177754 0.0254 -0.002
0.0177754 -0.0254 -0.002
0.0177754 -0.0254 0.002
0.018442 0.0254 0.002
0.018442 0.0254 -0.002
0.018442 -0.0254 -0.002
0.018442 -0.0254 0.002
-0.0190172 0.0254 0.002
-0.0190172 0.0254 -0.002
0.0191137 0.0254 0.002
0.0191137 0.0254 -0.002
0.0191137 -0.0254 -0.002
0.0191137 -0.0254 0.002
0.0197907 0.0254 0.002
0.0197907 0.0254 -0.002
0.0197907 -0.0254 -0.002
0.0197907 -0.0254 0.002
0.020473 0.0254 0.002
0.020473 0.0254 -0.002
0.020473 -0.0254 -0.002
0.020473 -0.0254 0.002
-0.0206 0.0254 -0.002
-0.0206 0.0254 0.002
0.0211606 0.0254 0.002
0.0211606 0.0254 -0.002
0.0211606 -0.0254 -0.002
0.0211606 -0.0254 0.002
0.0218535 0.0254 0.002
0.0218535 0.0254 -0.002
0.0218535 -0.0254 -0.002
0.0218535 -0.0254 0.002
0.0225517 0.0254 0.002
0.0225517 0.0254 -0.002
0.0225517 -0.0254 -0.002
0.0225517 -0.0254 0.002
0.0232555 0.0254 0.002
0.0232555 0.0254 -0.002
0.0232555 -0.0254 -0.002
0.0232555 -0.0254 0.002
0.0239647 0.0254 0.002
0.0239647 0.0254 -0.002
0.0239647 -0.0254 -0.002
0.0239647 -0.0254 0.002
0.0246794 0.0254 0.002
0.0246794 0.0254 -0.002
0.0246794 -0.0254 -0.002
0.0246794 -0.0254 0.002
0.0253996 0.0254 0.002
0.0253996 0.0254 -0.002
0.0253996 -0.0254 -0.002
0.0253996 -0.0254 0.002
0.0261255 0.0254 0.002
0.0261255 0.0254 -0.002
0.0261255 -0.0254 -0.002
0.0261255 -0.0254 0.002
0.026857 0.0254 0.002
0.026857 0.0254 -0.002
0.026857 -0.0254 -0.002
0.026857 -0.0254 0.002
0.0275942 0.0254 0.002
0.0275942 0.0254 -0.002
0.0275942 -0.0254 -0.002
0.0275942 -0.0254 0.002
0.0283371 0.0254 0.002
0.0283371 0.0254 -0.002
0.0283371 -0.0254 -0.002
0.0283371 -0.0254 0.002
0.0290858 0.0254 0.002
0.0290858 0.0254 -0.002
0.0290858 -0.0254 -0.002
0.0290858 -0.0254 0.002
0.0298403 0.0254 0.002
0.0298403 0.0254 -0.002
0.0298403 -0.0254 -0.002
0.0298403 -0.0254 0.002
0.0306007 0.0254 0.002
0.0306007 0.0254 -0.002
0.0306007 -0.0254 -0.002
0.0306007 -0.0254 0.002
0.031367 0.0254 0.002
0.031367 0.0254 -0.002
0.031367 -0.0254 -0.002
0.031367 -0.0254 0.002
0.0321393 0.0254 0.002
0.0321393 0.0254 -0.002
0.0321393 -0.0254 -0.002
0.0321393 -0.0254 0.002
0.0329175 0.0254 0.002
0.0329175 0.0254 -0.002
0.0329175 -0.0254 -0.002
0.0329175 -0.0254 0.002
0.0337019 0.0254 0.002
0.0337019 0.0254 -0.002
0.0337019 -0.0254 -0.002
0.0337019 -0.0254 0.002
0.0344923 0.0254 0.002
0.0344923 0.0254 -0.002
0.0344923 -0.0254 -0.002
0.0344923 -0.0254 0.002
0.0352888 0.0254 0.002
0.0352888 0.0254 -0.002
0.0352888 -0.0254 -0.002
0.0352888 -0.0254 0.002
0.0360916 0.0254 0.002
0.0360916 0.0254 -0.002
0.0360916 -0.0254 -0.002
0.0360916 -0.0254 0.002
0.0369006 0.0254 0.002
0.0369006 0.0254 -0.002
0.0369006 -0.0254 -0.002
0.0369006 -0.0254 0.002
0.0377158 0.0254 0.002
0.0377158 0.0254 -0.002
0.0377158 -0.0254 -0.002
0.0377158 -0.0254 0.002
0.0385375 0.0254 0.002
0.0385375 0.0254 -0.002
0.0385375 -0.0254 -0.002
0.0385375 -0.0254 0.002
0.0393655 0.0254 0.002
0.0393655 0.0254 -0.002
0.0393655 -0.0254 -0.002
0.0393655 -0.0254 0.002
0.0401999 0.0254 0.002
0.0401999 0.0254 -0.002
0.0401999 -0.0254 -0.002
0.0401999 -0.0254 0.002
0.0410408 0.0254 0.002
0.0410408 0.0254 -0.002
0.0410408 -0.0254 -0.002
0.0410408 -0.0254 0.002
0.0418883 0.0254 0.002
0.0418883 0.0254 -0.002
0.0418883 -0.0254 -0.002
0.0418883 -0.0254 0.002
0.0427424 0.0254 0.002
0.0427424 0.0254 -0.002
0.0427424 -0.0254 -0.002
0.0427424 -0.0254 0.002
0.0436031 0.0254 0.002
0.0436031 0.0254 -0.002
0.0436031 -0.0254 -0.002
0.0436031 -0.0254 0.002
0.0444704 0.0254 0.002
0.0444704 0.0254 -0.002
0.0444704 -0.0254 -0.002
0.0444704 -0.0254 0.002
0.0453446 0.0254 0.002
0.0453446 0.0254 -0.002
0.0453446 -0.0254 -0.002
0.0453446 -0.0254 0.002
0.0462255 0.0254 0.002
0.0462255 0.0254 -0.002
0.0462255 -0.0254 -0.002
0.0462255 -0.0254 0.002
0.0471133 0.0254 0.002
0.0471133 0.0254 -0.002
0.0471133 -0.0254 -0.002
0.0471133 -0.0254 0.002
0.048008 0.0254 0.002
0.048008 0.0254 -0.002
0.048008 -0.0254 -0.002
0.048008 -0.0254 0.002
0.0489096 0.0254 0.002
0.0489096 0.0254 -0.002
0.0489096 -0.0254 -0.002
0.0489096 -0.0254 0.002
0.0498183 0.0254 0.002
0.0498183 0.0254 -0.002
0.0498183 -0.0254 -0.002
0.0498183 -0.0254 0.002
0.050734 0.0254 0.002
0.050734 0.0254 -0.002
0.050734 -0.0254 -0.002
0.050734 -0.0254 0.002
0.0516568 0.0254 0.002
0.0516568 0.0254 -0.002
0.0516568 -0.0254 -0.002
0.0516568 -0.0254 0.002
0.0525868 0.0254 0.002
0.0525868 0.0254 -0.002
0.0525868 -0.0254 -0.002
0.0525868 -0.0254 0.002
0.053524 0.0254 0.002
0.053524 0.0254 -0.002
0.053524 -0.0254 -0.002
[...]
CELL_DATA 946
FIELD attributes 1
k 1 946 float
0.375 0.375 0.375 0.375 0.375 0.375 0.375 0.375 0.375 0.375
0.375 0.375 0.375 0.375 0.375 0.375 0.375 0.375 0.375 0.375
0.375 0.375 0.375 0.375 0.375 0.375 0.375 0.375 0.375 0.375
0.375 0.375 0.375 0.375 0.375 0.375 0.375 0.375 0.375 0.375
0.375 0.375 0.375 0.375 0.375 0.375 0.375 0.375 0.375 0.375
0.375 0.375 0.375 0.375 0.375 0.375 0.375 0.375 0.375 0.375
0.375 0.375 0.375 0.375 0.375 0.375 0.375 0.375 0.375 0.375
0.375 0.375 0.375 0.375 0.375 0.375 0.375 0.375 0.375 0.375
0.375 0.375 0.375 0.375 0.375 0.375 0.375 0.375 0.375 0.375
0.375 0.375 0.375 0.375 0.375 0.375 0.375 0.375 0.375 0.375
0.375 0.375 0.375 0.375 0.375 0.375 0.375 0.375 0.375 0.375
0.375 0.375 0.375 0.375 0.375 0.375 0.375 0.375 0.375 0.375
0.375 0.375 0.375 0.375 0.375 0.375 0.375 0.375 0.375 0.375
0.375 0.375 0.375 0.375 0.375 0.375 0.375 0.375 0.375 0.375
0.375 0.375 0.375 0.375 0.375 0.375 0.375 0.375 0.375 0.375
0.375 0.375 0.375 0.375 0.375 0.375 0.375 0.375 0.375 0.375
0.375 0.375 0.375 0.375 0.375 0.375 0.375 0.375 0.375 0.375
0.375 0.375 0.375 0.375 0.375 0.375 0.375 0.375 0.375 0.375
0.375 0.375 0.375 0.375 0.375 0.375 0.375 0.375 0.375 0.375
0.375 0.375 0.375 0.375 0.375 0.375 0.375 0.375 0.375 0.375
0.375 0.375 0.375 0.375 0.375 0.375 0.375 0.375 0.375 0.375
0.375 0.375 0.375 0.375 0.375 0.375 0.375 0.375 0.375 0.375
0.375 0.375 0.375 0.375 0.375 0.375 0.375 0.375 0.375 0.375
0.375 0.375 0.375 0.375 0.375 0.375 0.375 0.375 0.375 0.375
0.375 0.375 0.375 0.375 0.375 0.375 0.375 0.375 0.375 0.375
0.375 0.375 0.375 0.375 0.375 0.375 0.375 0.375 0.375 0.375
0.375 0.375 0.375 0.375 0.375 0.375 0.375 0.375 0.375 0.375
0.375 0.375 0.375 0.375 0.375 0.375 0.375 0.375 0.375 0.375
0.375 0.375 0.375 0.375 0.375 0.375 0.375 0.375 0.375 0.375
0.375 0.375 0.375 0.375 0.375 0.375 0.375 0.375 0.375 0.375
0.375 0.375 0.375 0.375 0.375 0.375 0.375 0.375 0.375 0.375
0.375 0.375 0.375 0.375 0.375 0.375 0.375 0.375 0.375 0.375
0.375 0.375 0.375 0.375 0.375 0.375 0.375 0.375 0.375 0.375
0.375 0.375 0.375 0.375 0.375 0.375 0.375 0.375 0.375 0.375
0.375 0.375 0.375 0.375 0.375 0.375 0.375 0.375 0.375 0.375
0.375 0.375 0.375 0.375 0.375 0.375 0.375 0.375 0.375 0.375
0.375 0.375 0.375 0.375 0.375 0.375 0.375 0.375 0.375 0.375
0.375 0.375 0.375 0.375 0.375 0.375 0.375 0.375 0.375 0.375
0.375 0.375 0.375 0.375 0.375 0.375 0.375 0.375 0.375 0.375
0.375 0.375 0.375 0.375 0.375 0.375 0.375 0.375 0.375 0.375
0.375 0.375 0.375 0.375 0.375 0.375 0.375 0.375 0.375 0.375
0.375 0.375 0.375 0.375 0.375 0.375 0.375 0.375 0.375 0.375
0.375 0.375 0.375 0.375 0.375 0.375 0.375 0.375 0.375 0.375
0.375 0.375 0.375 0.375 0.375 0.375 0.375 0.375 0.375 0.375
0.375 0.375 0.375 0.375 0.375 0.375 0.375 0.375 0.375 0.375
0.375 0.375 0.375 0.375 0.375 0.375 0.375 0.375 0.375 0.375
0.375 0.375 0.375 0.375 0.375 0.375 0.375 0.375 0.375 0.375
0.375 0.375 0.375 0.375 0.375 0.375 0.375 0.375 0.375 0.375
0.375 0.375 0.375 0.375 0.375 0.375 0.375 0.375 0.375 0.375
0.375 0.375 0.375 0.375 0.375 0.375 0.375 0.375 0.375 0.375
0.375 0.375 0.375 0.375 0.375 0.375 0.375 0.375 0.375 0.375
0.375 0.375 0.375 0.375 0.375 0.375 0.375 0.375 0.375 0.375
0.375 0.375 0.375 0.375 0.375 0.375 0.375 0.375 0.375 0.375
0.375 0.375 0.375 0.375 0.375 0.375 0.375 0.375 0.375 0.375
0.375 0.375 0.375 0.375 0.375 0.375 0.375 0.375 0.375 0.375
0.375 0.375 0.375 0.375 0.375 0.375 0.375 0.375 0.375 0.375
0.375 0.375 0.375 0.375 0.375 0.375 0.375 0.375 0.375 0.375
0.375 0.375 0.375 0.375 0.375 0.375 0.375 0.375 0.375 0.375
0.375 0.375 0.375 0.375 0.375 0.375 0.375 0.375 0.375 0.375
0.375 0.375 0.375 0.375 0.375 0.375 0.375 0.375 0.375 0.375
0.375 0.375 0.375 0.375 0.375 0.375 0.375 0.375 0.375 0.375
0.375 0.375 0.375 0.375 0.375 0.375 0.375 0.375 0.375 0.375
0.375 0.375 0.375 0.375 0.375 0.375 0.375 0.375 0.375 0.375
0.375 0.375 0.375 0.375 0.375 0.375 0.375 0.375 0.375 0.375
0.375 0.375 0.375 0.375 0.375 0.375 0.375 0.375 0.375 0.375
0.375 0.375 0.375 0.375 0.375 0.375 0.375 0.375 0.375 0.375
0.375 0.375 0.375 0.375 0.375 0.375 0.375 0.375 0.375 0.375
0.375 0.375 0.375 0.375 0.375 0.375 0.375 0.375 0.375 0.375
0.375 0.375 0.375 0.375 0.375 0.375 0.375 0.375 0.375 0.375
0.375 0.375 0.375 0.375 0.375 0.375 0.375 0.375 0.375 0.375
0.375 0.375 0.375 0.375 0.375 0.375 0.375 0.375 0.375 0.375
0.375 0.375 0.375 0.375 0.375 0.375 0.375 0.375 0.375 0.375
0.375 0.375 0.375 0.375 0.375 0.375 0.375 0.375 0.375 0.375
0.375 0.375 0.375 0.375 0.375 0.375 0.375 0.375 0.375 0.375
0.375 0.375 0.375 0.375 0.375 0.375 0.375 0.375 0.375 0.375
0.375 0.375 0.375 0.375 0.375 0.375 0.375 0.375 0.375 0.375
0.375 0.375 0.375 0.375 0.375 0.375 0.375 0.375 0.375 0.375
0.375 0.375 0.375 0.375 0.375 0.375 0.375 0.375 0.375 0.375
0.375 0.375 0.375 0.375 0.375 0.375 0.375 0.375 0.375 0.375
0.375 0.375 0.375 0.375 0.375 0.375 0.375 0.375 0.375 0.375
0.375 0.375 0.375 0.375 0.375 0.375 0.375 0.375 0.375 0.375
0.375 0.375 0.375 0.375 0.375 0.375 0.375 0.375 0.375 0.375
0.375 0.375 0.375 0.375 0.375 0.375 0.375 0.375 0.375 0.375
0.375 0.375 0.375 0.375 0.375 0.375 0.375 0.375 0.375 0.375
0.375 0.375 0.375 0.375 0.375 0.375 0.375 0.375 0.375 0.375
0.375 0.375 0.375 0.375 0.375 0.375 0.375 0.375 0.375 0.375
0.375 0.375 0.375 0.375 0.375 0.375 0.375 0.375 0.375 0.375
0.375 0.375 0.375 0.375 0.375 0.375 0.375 0.375 0.375 0.375
0.375 0.375 0.375 0.375 0.375 0.375 0.375 0.375 0.375 0.375
0.375 0.375 0.375 0.375 0.375 0.375 0.375 0.375 0.375 0.375
0.375 0.375 0.375 0.375 0.375 0.375 0.375 0.375 0.375 0.375
0.375 0.375 0.375 0.375 0.375 0.375 0.375 0.375 0.375 0.375
0.375 0.375 0.375 0.375 0.375 0.375 0.375 0.375 0.375 0.375
0.375 0.375 0.375 0.375 0.375 0.375 0.375 0.375 0.375 0.375
0.375 0.375 0.375 0.375 0.375 0.375
