# vtk DataFile Version 2.0
"ibCylinderNormals".vtk
ASCII
DATASET POLYDATA
POINTS 96 float
0.191151 -0.160386 0.0333333 0.183963 -0.168581 0.0666667 0.21045 -0.134064 0.0333333 0.204394 -0.143127 
0.0666667 0.226149 -0.105447 0.0333333 0.221327 -0.115224 0.0666667 0.237977 -0.075027 0.0333333 
0.234474 -0.085349 0.0666667 0.245734 -0.0433227 0.0333333 0.243608 -0.0540138 0.0666667 0.248574 
-0.0217543 0.0666667 0.249287 -0.0108772 0.0333333 0.248574 0.0217543 0.0333333 0.249287 0.0108772 
0.0666667 0.243608 0.0540138 0.0333333 0.245734 0.0433227 0.0666667 0.234474 0.085349 0.0333333 
0.237977 0.075027 0.0666667 0.221327 0.115224 0.0333333 0.226149 0.105447 0.0666667 0.204394 
0.143127 0.0333333 0.21045 0.134064 0.0666667 0.183963 0.168581 0.0333333 0.191151 0.160386 
0.0666667 0.160386 0.191151 0.0333333 0.168581 0.183963 0.0666667 0.134064 0.21045 0.0333333 
0.143127 0.204394 0.0666667 0.105447 0.226149 0.0333333 0.115224 0.221327 0.0666667 0.075027 
0.237977 0.0333333 0.085349 0.234474 0.0666667 0.0433227 0.245734 0.0333333 0.0540138 0.243608 
0.0666667 0.0217543 0.248574 0.0666667 0.0108772 0.249287 0.0333333 -0.0217543 0.248574 0.0333333 
-0.0108772 0.249287 0.0666667 -0.0540138 0.243608 0.0333333 -0.0433227 0.245734 0.0666667 -0.085349 
0.234474 0.0333333 -0.075027 0.237977 0.0666667 -0.115224 0.221327 0.0333333 -0.105447 0.226149 
0.0666667 -0.143127 0.204394 0.0333333 -0.134064 0.21045 0.0666667 -0.168581 0.183963 0.0333333 
-0.160386 0.191151 0.0666667 -0.191151 0.160386 0.0333333 -0.183963 0.168581 0.0666667 -0.21045 
0.134064 0.0333333 -0.204394 0.143127 0.0666667 -0.226149 0.105447 0.0333333 -0.221327 0.115224 
0.0666667 -0.237977 0.075027 0.0333333 -0.234474 0.085349 0.0666667 -0.245734 0.0433227 0.0333333 
-0.243608 0.0540138 0.0666667 -0.248574 0.0217543 0.0666667 -0.249287 0.0108772 0.0333333 -0.248574 
-0.0217543 0.0333333 -0.249287 -0.0108772 0.0666667 -0.243608 -0.0540138 0.0333333 -0.245734 -0.0433227 
0.0666667 -0.234474 -0.085349 0.0333333 -0.237977 -0.075027 0.0666667 -0.221327 -0.115224 0.0333333 
-0.226149 -0.105447 0.0666667 -0.204394 -0.143127 0.0333333 -0.21045 -0.134064 0.0666667 -0.183963 
-0.168581 0.0333333 -0.191151 -0.160386 0.0666667 0.168581 -0.183963 0.0666667 0.160386 -0.191151 
0.0333333 0.143127 -0.204394 0.0666667 0.134064 -0.21045 0.0333333 0.115224 -0.221327 0.0666667 
0.105447 -0.226149 0.0333333 0.085349 -0.234474 0.0666667 0.075027 -0.237977 0.0333333 0.0540138 
-0.243608 0.0666667 0.0433227 -0.245734 0.0333333 0.0217543 -0.248574 0.0333333 0.0108772 -0.249287 
0.0666667 -0.0217543 -0.248574 0.0666667 -0.0108772 -0.249287 0.0333333 -0.0433227 -0.245734 0.0666667 
-0.0540138 -0.243608 0.0333333 -0.075027 -0.237977 0.0666667 -0.085349 -0.234474 0.0333333 -0.105447 
-0.226149 0.0666667 -0.115224 -0.221327 0.0333333 -0.134064 -0.21045 0.0666667 -0.143127 -0.204394 
0.0333333 -0.160386 -0.191151 0.0666667 -0.168581 -0.183963 0.0333333 
POINT_DATA 96
FIELD attributes 1
normals 3 96 float
0.00122925 -0.0010781 0 0.00122925 -0.0010781 0 0.00135955 -0.0009084 0 0.00135955 -0.0009084 
0 0.00146645 -0.0007232 0 0.00146645 -0.0007232 0 0.0015483 -0.000525551 0 
0.0015483 -0.000525551 0 0.00160367 -0.000319 0 0.00160367 -0.000319 0 0.00163158 
-0.00010695 0 0.00163158 -0.00010695 -1.76183e-19 0.00163158 0.00010695 0 0.00163158 0.00010695 
1.76183e-19 0.00160367 0.000319 0 0.00160367 0.000319 0 0.0015483 0.000525551 0 
0.0015483 0.000525551 0 0.00146645 0.0007232 0 0.00146645 0.0007232 0 0.00135955 
0.0009084 0 0.00135955 0.0009084 0 0.00122925 0.0010781 0 0.00122925 0.0010781 
0 0.0010781 0.00122925 0 0.0010781 0.00122925 0 0.0009084 0.00135955 0 
0.0009084 0.00135955 0 0.0007232 0.00146645 0 0.0007232 0.00146645 0 0.000525551 
0.0015483 0 0.000525551 0.0015483 0 0.000319 0.00160367 0 0.000319 0.00160367 
0 0.00010695 0.00163158 0 0.00010695 0.00163158 -1.76183e-19 -0.00010695 0.00163158 0 
-0.00010695 0.00163158 1.76183e-19 -0.000319 0.00160367 0 -0.000319 0.00160367 0 -0.000525551 
0.0015483 0 -0.000525551 0.0015483 0 -0.0007232 0.00146645 0 -0.0007232 0.00146645 
0 -0.0009084 0.00135955 0 -0.0009084 0.00135955 0 -0.0010781 0.00122925 0 
-0.0010781 0.00122925 0 -0.00122925 0.0010781 0 -0.00122925 0.0010781 0 -0.00135955 
0.0009084 0 -0.00135955 0.0009084 0 -0.00146645 0.0007232 0 -0.00146645 0.0007232 
0 -0.0015483 0.000525551 0 -0.0015483 0.000525551 0 -0.00160367 0.000319 0 
-0.00160367 0.000319 0 -0.00163158 0.00010695 0 -0.00163158 0.00010695 -1.76183e-19 -0.00163158 
-0.00010695 0 -0.00163158 -0.00010695 1.76183e-19 -0.00160367 -0.000319 0 -0.00160367 -0.000319 
0 -0.0015483 -0.000525551 0 -0.0015483 -0.000525551 0 -0.00146645 -0.0007232 0 
-0.00146645 -0.0007232 0 -0.00135955 -0.0009084 0 -0.00135955 -0.0009084 0 -0.00122925 
-0.0010781 0 -0.00122925 -0.0010781 0 0.0010781 -0.00122925 0 0.0010781 -0.00122925 
0 0.0009084 -0.00135955 0 0.0009084 -0.00135955 0 0.0007232 -0.00146645 0 
0.0007232 -0.00146645 0 0.000525551 -0.0015483 0 0.000525551 -0.0015483 0 0.000319 
-0.00160367 0 0.000319 -0.00160367 0 0.00010695 -0.00163158 0 0.00010695 -0.00163158 
1.76183e-19 -0.00010695 -0.00163158 0 -0.00010695 -0.00163158 -1.76183e-19 -0.000319 -0.00160367 0 
-0.000319 -0.00160367 -0 -0.000525551 -0.0015483 0 -0.000525551 -0.0015483 -0 -0.0007232 
-0.00146645 0 -0.0007232 -0.00146645 -0 -0.0009084 -0.00135955 0 -0.0009084 -0.00135955 
-0 -0.0010781 -0.00122925 0 -0.0010781 -0.00122925 -0 
