/*--------------------------------*- C++ -*----------------------------------*\
| =========                 |                                                 |
| \\      /  F ield         | OpenFOAM Extend Project: Open source CFD        |
|  \\    /   O peration     | Version:  1.6-ext                               |
|   \\  /    A nd           | Web:      www.extend-project.de                 |
|    \\/     M anipulation  |                                                 |
\*---------------------------------------------------------------------------*/
FoamFile
{
    version     2.0;
    format      ascii;
    class       polyBoundaryMesh;
    location    "constant/polyMesh";
    object      boundary;
}
// * * * * * * * * * * * * * * * * * * * * * * * * * * * * * * * * * * * * * //

7
(
    ibSphere
    {
        type            immersedBoundary;
        nFaces          0;
        startFace       641052;

        internalFlow    no;
    }
    in
    {
        type            patch;
        nFaces          900;
        startFace       641052;
    }
    out
    {
        type            patch;
        nFaces          1788;
        startFace       641952;
    }
    top
    {
        type            patch;
        nFaces          900;
        startFace       643740;
    }
    bottom
    {
        type            patch;
        nFaces          900;
        startFace       644640;
    }
    back
    {
        type            wall;
        nFaces          900;
        startFace       645540;
    }
    front
    {
        type            wall;
        nFaces          900;
        startFace       646440;
    }
)

// ************************************************************************* //
